                         Program Version 4.2.0 -  RELEASE  -
|  1> # 5meoh.boyd.etal.dset.1meoh.dset-orca.engrad-mp2.def2tzvp
|  2> ! MP2 def2-TZVP EnGrad TightSCF FrozenCore
|  3>
|  4> %pal
|  5>     nprocs 12
|  6> end
|  7>
|  8> %maxcore 8000
|  9>
| 10> %scf
| 11>     ConvForced true
| 12> end
| 13>
| 14> *xyz 0 1
| 15> O  -0.053551369  -0.034818903   0.691416475
| 16> H   0.883505837  -0.036069414   1.026988134
| 17> C  -0.001642369   0.034971201  -0.727597027
| 18> H  -1.029353241   0.001971445  -1.101033524
| 19> H   0.556460298  -0.803668219  -1.167787250
| 20> H   0.459062996   0.973778387  -1.063933826
| 21> *
| 22>
| 23>
| 24> $new_job
| 25>
| 26> # 5meoh.boyd.etal.dset.1meoh.dset-orca.engrad-mp2.def2tzvp
| 27> ! MP2 def2-TZVP EnGrad TightSCF FrozenCore
| 28>
| 29> %pal
| 30>     nprocs 12
| 31> end
| 32>
| 33> %maxcore 8000
| 34>
| 35> %scf
| 36>     ConvForced true
| 37> end
| 38>
| 39> *xyz 0 1
| 40> O   0.618933684  -0.227780001  -0.213258517
| 41> H   1.091536593   0.570287323  -0.574238963
| 42> C  -0.660855195   0.184981035   0.240638201
| 43> H  -1.173335701  -0.694673847   0.641662698
| 44> H  -1.267053462   0.589513859  -0.581938993
| 45> H  -0.601588000   0.946516207   1.032415800
| 46> *
| 47>
| 48>
| 49> $new_job
| 50>
| 51> # 5meoh.boyd.etal.dset.1meoh.dset-orca.engrad-mp2.def2tzvp
| 52> ! MP2 def2-TZVP EnGrad TightSCF FrozenCore
| 53>
| 54> %pal
| 55>     nprocs 12
| 56> end
| 57>
| 58> %maxcore 8000
| 59>
| 60> %scf
| 61>     ConvForced true
| 62> end
| 63>
| 64> *xyz 0 1
| 65> O  -0.351907203   0.513050000   0.307414585
| 66> H  -1.252167355   0.139614074   0.507236162
| 67> C   0.414042084  -0.502188725  -0.327181724
| 68> H   1.394155110  -0.079358151  -0.566246936
| 69> H  -0.049998149  -0.855718648  -1.259233901
| 70> H   0.560588269  -1.364817317   0.336924686
| 71> *
| 72>
| 73>
| 74> $new_job
| 75>
| 76> # 5meoh.boyd.etal.dset.1meoh.dset-orca.engrad-mp2.def2tzvp
| 77> ! MP2 def2-TZVP EnGrad TightSCF FrozenCore
| 78>
| 79> %pal
| 80>     nprocs 12
| 81> end
| 82>
| 83> %maxcore 8000
| 84>
| 85> %scf
| 86>     ConvForced true
| 87> end
| 88>
| 89> *xyz 0 1
| 90> O  -0.242396049  -0.476034702  -0.442652881
| 91> H  -0.093868369  -1.354746623   0.000625759
| 92> C   0.238410575   0.539909165   0.426380935
| 93> H   0.040321335   1.505537354  -0.047895250
| 94> H   1.321301741   0.448277074   0.587259304
| 95> H  -0.260763500   0.524126734   1.406105039
| 96> *
| 97>
| 98>
| 99> $new_job
|100>
|101> # 5meoh.boyd.etal.dset.1meoh.dset-orca.engrad-mp2.def2tzvp
|102> ! MP2 def2-TZVP EnGrad TightSCF FrozenCore
|103>
|104> %pal
|105>     nprocs 12
|106> end
|107>
|108> %maxcore 8000
|109>
|110> %scf
|111>     ConvForced true
|112> end
|113>
|114> *xyz 0 1
|115> O   0.244765462  -0.095102033  -0.641628568
|116> H  -0.418375873   0.323066168  -1.252945896
|117> C  -0.210358118   0.072623782   0.692893721
|118> H   0.561639021  -0.321399639   1.360037840
|119> H  -1.139570585  -0.486077394   0.873163565
|120> H  -0.382575239   1.128717212   0.948679917
|121> *
|122>
|123>
|124> $new_job
|125>
|126> # 5meoh.boyd.etal.dset.1meoh.dset-orca.engrad-mp2.def2tzvp
|127> ! MP2 def2-TZVP EnGrad TightSCF FrozenCore
|128>
|129> %pal
|130>     nprocs 12
|131> end
|132>
|133> %maxcore 8000
|134>
|135> %scf
|136>     ConvForced true
|137> end
|138>
|139> *xyz 0 1
|140> O  -0.182256837  -0.521043080   0.420417755
|141> H   0.676293452  -0.911357164   0.736126332
|142> C   0.134736320   0.556581349  -0.448209345
|143> H  -0.804972074   1.019985878  -0.763167612
|144> H   0.661744839   0.207181799  -1.347089239
|145> H   0.754641448   1.323204125   0.041119986
|146> *
|147>
|148>
|149> $new_job
|150>
|151> # 5meoh.boyd.etal.dset.1meoh.dset-orca.engrad-mp2.def2tzvp
|152> ! MP2 def2-TZVP EnGrad TightSCF FrozenCore
|153>
|154> %pal
|155>     nprocs 12
|156> end
|157>
|158> %maxcore 8000
|159>
|160> %scf
|161>     ConvForced true
|162> end
|163>
|164> *xyz 0 1
|165> O   0.674865870  -0.110961460   0.103165878
|166> H   1.036382063  -0.510307383  -0.731861054
|167> C  -0.711552657   0.138140261  -0.055631019
|168> H  -1.088375298   0.540435414   0.889377799
|169> H  -1.262364609  -0.785258739  -0.281504253
|170> H  -0.919862380   0.870492716  -0.850817705
|171> *
|172>
|173>
|174> $new_job
|175>
|176> # 5meoh.boyd.etal.dset.1meoh.dset-orca.engrad-mp2.def2tzvp
|177> ! MP2 def2-TZVP EnGrad TightSCF FrozenCore
|178>
|179> %pal
|180>     nprocs 12
|181> end
|182>
|183> %maxcore 8000
|184>
|185> %scf
|186>     ConvForced true
|187> end
|188>
|189> *xyz 0 1
|190> O  -0.127378442   0.275127821  -0.624963786
|191> H  -0.907045982   0.877259947  -0.491612542
|192> C   0.176804859  -0.318429185   0.631368322
|193> H   1.035145378  -0.981049938   0.487060590
|194> H  -0.659838382  -0.911972529   1.026464535
|195> H   0.446979379   0.442684328   1.375624100
|196> *
|197>
|198>
|199> $new_job
|200>
|201> # 5meoh.boyd.etal.dset.1meoh.dset-orca.engrad-mp2.def2tzvp
|202> ! MP2 def2-TZVP EnGrad TightSCF FrozenCore
|203>
|204> %pal
|205>     nprocs 12
|206> end
|207>
|208> %maxcore 8000
|209>
|210> %scf
|211>     ConvForced true
|212> end
|213>
|214> *xyz 0 1
|215> O  -0.570429202   0.042838114   0.391128066
|216> H  -0.351230495   0.673810694   1.128513340
|217> C   0.569761351  -0.081080497  -0.444797479
|218> H   0.313941212  -0.766032865  -1.258647523
|219> H   1.424801603  -0.502270103   0.102268100
|220> H   0.878430694   0.880625064  -0.880839524
|221> *
|222>
|223>
|224> $new_job
|225>
|226> # 5meoh.boyd.etal.dset.1meoh.dset-orca.engrad-mp2.def2tzvp
|227> ! MP2 def2-TZVP EnGrad TightSCF FrozenCore
|228>
|229> %pal
|230>     nprocs 12
|231> end
|232>
|233> %maxcore 8000
|234>
|235> %scf
|236>     ConvForced true
|237> end
|238>
|239> *xyz 0 1
|240> O   0.050290517  -0.614283952   0.317190342
|241> H  -0.718285574  -1.151470957  -0.008981739
|242> C  -0.004971993   0.660191001  -0.305152208
|243> H   0.878019721   1.223453090   0.009842364
|244> H  -0.899236893   1.219721149   0.003674522
|245> H   0.000409384   0.592839439  -1.403548723
|246> *
|247>
|248>
|249> $new_job
|250>
|251> # 5meoh.boyd.etal.dset.1meoh.dset-orca.engrad-mp2.def2tzvp
|252> ! MP2 def2-TZVP EnGrad TightSCF FrozenCore
|253>
|254> %pal
|255>     nprocs 12
|256> end
|257>
|258> %maxcore 8000
|259>
|260> %scf
|261>     ConvForced true
|262> end
|263>
|264> *xyz 0 1
|265> O  -0.030194368   0.006866852   0.695205055
|266> H   0.917891509  -0.001800451   0.995761945
|267> C  -0.026285655  -0.005849870  -0.730347961
|268> H  -1.047509493   0.196192341  -1.067562634
|269> H   0.274912400  -0.989590447  -1.115793273
|270> H   0.647252816   0.755898289  -1.145533965
|271> *
|272>
|273>
|274> $new_job
|275>
|276> # 5meoh.boyd.etal.dset.1meoh.dset-orca.engrad-mp2.def2tzvp
|277> ! MP2 def2-TZVP EnGrad TightSCF FrozenCore
|278>
|279> %pal
|280>     nprocs 12
|281> end
|282>
|283> %maxcore 8000
|284>
|285> %scf
|286>     ConvForced true
|287> end
|288>
|289> *xyz 0 1
|290> O   0.620817719   0.033471351  -0.303918336
|291> H   0.796994672  -0.857076223  -0.714327966
|292> C  -0.645908084   0.019609009   0.335018358
|293> H  -0.787267211   0.991275288   0.817194265
|294> H  -0.698439981  -0.760727458   1.106262302
|295> H  -1.469748731  -0.138479450  -0.376692808
|296> *
|297>
|298>
|299> $new_job
|300>
|301> # 5meoh.boyd.etal.dset.1meoh.dset-orca.engrad-mp2.def2tzvp
|302> ! MP2 def2-TZVP EnGrad TightSCF FrozenCore
|303>
|304> %pal
|305>     nprocs 12
|306> end
|307>
|308> %maxcore 8000
|309>
|310> %scf
|311>     ConvForced true
|312> end
|313>
|314> *xyz 0 1
|315> O  -0.559564786  -0.364525736   0.185243543
|316> H  -1.263213729   0.296570146   0.421495407
|317> C   0.614928717   0.333191942  -0.203157298
|318> H   1.382864710  -0.411188521  -0.431866221
|319> H   0.991504161   0.990479254   0.593818706
|320> H   0.444097562   0.940455444  -1.103251751
|321> *
|322>
|323>
|324> $new_job
|325>
|326> # 5meoh.boyd.etal.dset.1meoh.dset-orca.engrad-mp2.def2tzvp
|327> ! MP2 def2-TZVP EnGrad TightSCF FrozenCore
|328>
|329> %pal
|330>     nprocs 12
|331> end
|332>
|333> %maxcore 8000
|334>
|335> %scf
|336>     ConvForced true
|337> end
|338>
|339> *xyz 0 1
|340> O  -0.001150676  -0.310100679  -0.623049867
|341> H   0.121526570   0.421854470  -1.279380283
|342> C  -0.007190358   0.274126003   0.677627669
|343> H  -0.084501142  -0.541171594   1.402629676
|344> H  -0.858357440   0.954229848   0.819277286
|345> H   0.925280083   0.821269239   0.873392775
|346> *
|347>
|348>
|349> $new_job
|350>
|351> # 5meoh.boyd.etal.dset.1meoh.dset-orca.engrad-mp2.def2tzvp
|352> ! MP2 def2-TZVP EnGrad TightSCF FrozenCore
|353>
|354> %pal
|355>     nprocs 12
|356> end
|357>
|358> %maxcore 8000
|359>
|360> %scf
|361>     ConvForced true
|362> end
|363>
|364> *xyz 0 1
|365> O   0.435624386  -0.132646772   0.524123886
|366> H  -0.080100542  -0.695896116   1.156680308
|367> C  -0.414452770   0.168873721  -0.574472048
|368> H   0.166700366   0.751420692  -1.294982295
|369> H  -1.276206867   0.773354573  -0.259318611
|370> H  -0.787051582  -0.735497416  -1.077111769
|371> *
|372>
|373>
|374> $new_job
|375>
|376> # 5meoh.boyd.etal.dset.1meoh.dset-orca.engrad-mp2.def2tzvp
|377> ! MP2 def2-TZVP EnGrad TightSCF FrozenCore
|378>
|379> %pal
|380>     nprocs 12
|381> end
|382>
|383> %maxcore 8000
|384>
|385> %scf
|386>     ConvForced true
|387> end
|388>
|389> *xyz 0 1
|390> O  -0.068066977  -0.047645973   0.689637497
|391> H   0.861418037  -0.065571019   1.074446087
|392> C   0.013321772   0.049874096  -0.729952378
|393> H  -1.006716276   0.059262694  -1.123206073
|394> H   0.548761367  -0.805864905  -1.161206574
|395> H   0.518326498   0.974224167  -1.039492613
|396> *
|397>
|398>
|399> $new_job
|400>
|1349> $new_job
|1350>
|1351> # 5meoh.boyd.etal.dset.1meoh.dset-orca.engrad-mp2.def2tzvp
|1352> ! MP2 def2-TZVP EnGrad TightSCF FrozenCore
|1353>
|1354> %pal
|1355>     nprocs 12
|1356> end
|1357>
|1358> %maxcore 8000
|1359>
|1360> %scf
|1361>     ConvForced true
|1362> end
|1363>
|1364> *xyz 0 1
|1365> O  -0.680101511   0.076494765  -0.099064083
|1366> H  -0.800898266   0.978087499  -0.471699205
|1367> C   0.701159123  -0.131541778   0.123104215
|1368> H   0.817909808  -1.119732245   0.579556232
|1369> H   1.136594454   0.613328067   0.807895679
|1370> H   1.287578990  -0.118529943  -0.810084280
|1371> *
|1372>
|1373>
|1374> $new_job
|1375>
|1376> # 5meoh.boyd.etal.dset.1meoh.dset-orca.engrad-mp2.def2tzvp
|1377> ! MP2 def2-TZVP EnGrad TightSCF FrozenCore
|1378>
|1379> %pal
|1380>     nprocs 12
|1381> end
|1382>
|1383> %maxcore 8000
|1384>
|1385> %scf
|1386>     ConvForced true
|1387> end
|1388>
|1389> *xyz 0 1
|1390> O   0.203517197   0.018402550   0.665544775
|1391> H   1.189708316  -0.045690323   0.660010434
|1392> C  -0.269151840  -0.013917715  -0.681745105
|1393> H  -1.308311585  -0.352946275  -0.661562978
|1394> H   0.314155407  -0.710941959  -1.299246219
|1395> H  -0.219039791   0.983291876  -1.140645114
|1396> *
|1397>
|1398>
|1399> $new_job
|1400>
|1401> # 5meoh.boyd.etal.dset.1meoh.dset-orca.engrad-mp2.def2tzvp
|1402> ! MP2 def2-TZVP EnGrad TightSCF FrozenCore
|1403>
|1404> %pal
|1405>     nprocs 12
|1406> end
|1407>
|1408> %maxcore 8000
|1409>
|1410> %scf
|1411>     ConvForced true
|1412> end
|1413>
|1414> *xyz 0 1
|1415> O  -0.347941772  -0.406410132  -0.443291659
|1416> H  -0.305116963  -1.313589274  -0.061439090
|1417> C   0.353094144   0.470422044   0.431308563
|1418> H   0.262188489   1.480702239   0.023830298
|1419> H   1.420415308   0.214135197   0.485983902
|1420> H  -0.061592042   0.464706869   1.449141596
|1421> *
|1422>
|1423>
|1424> $new_job
|1425>
|1426> # 5meoh.boyd.etal.dset.1meoh.dset-orca.engrad-mp2.def2tzvp
|1427> ! MP2 def2-TZVP EnGrad TightSCF FrozenCore
|1428>
|1429> %pal
|1430>     nprocs 12
|1431> end
|1432>
|1433> %maxcore 8000
|1434>
|1435> %scf
|1436>     ConvForced true
|1437> end
|1438>
|1439> *xyz 0 1
|1440> O   0.540468056   0.442351666   0.049052615
|1441> H   1.327881892  -0.067872798  -0.193017462
|1442> C  -0.602813486  -0.423588993  -0.035956750
|1443> H  -1.484208561   0.184148170   0.180052226
|1444> H  -0.533251753  -1.232976836   0.701828470
|1445> H  -0.706889076  -0.857881005  -1.039085563
|1446> *
|1447>
|1448>
|1449> $new_job
|1450>
|1451> # 5meoh.boyd.etal.dset.1meoh.dset-orca.engrad-mp2.def2tzvp
|1452> ! MP2 def2-TZVP EnGrad TightSCF FrozenCore
|1453>
|1454> %pal
|1455>     nprocs 12
|1456> end
|1457>
|1458> %maxcore 8000
|1459>
|1460> %scf
|1461>     ConvForced true
|1462> end
|1463>
|1464> *xyz 0 1
|1465> O   0.207807642  -0.312224983  -0.584629119
|1466> H   0.685363611   0.390330356  -1.105405850
|1467> C  -0.241616666   0.277286477   0.629356068
|1468> H  -0.783664942  -0.489370092   1.190714727
|1469> H  -0.920033412   1.122949137   0.450509741
|1470> H   0.598624098   0.628334200   1.245400797
|1471> *
|1472>
|1473>
|1474> $new_job
|1475>
|1476> # 5meoh.boyd.etal.dset.1meoh.dset-orca.engrad-mp2.def2tzvp
|1477> ! MP2 def2-TZVP EnGrad TightSCF FrozenCore
|1478>
|1479> %pal
|1480>     nprocs 12
|1481> end
|1482>
|1483> %maxcore 8000
|1484>
|1485> %scf
|1486>     ConvForced true
|1487> end
|1488>
|1489> *xyz 0 1
|1490> O  -0.005162104   0.629110390   0.285348989
|1491> H   0.642444649   0.586076645   1.023084824
|1492> C  -0.032911804  -0.638639868  -0.334518264
|1493> H  -0.744187415  -0.586311270  -1.165710291
|1494> H  -0.369540739  -1.438277147   0.346204294
|1495> H   0.945412582  -0.938201432  -0.747193378
|1496> *
|1497>
|1498>
|1499> $new_job
|1500>
|1501> # 5meoh.boyd.etal.dset.1meoh.dset-orca.engrad-mp2.def2tzvp
|1502> ! MP2 def2-TZVP EnGrad TightSCF FrozenCore
|1503>
|1504> %pal
|1505>     nprocs 12
|1506> end
|1507>
|1508> %maxcore 8000
|1509>
|1510> %scf
|1511>     ConvForced true
|1512> end
|1513>
|1514> *xyz 0 1
|1515> O  -0.192052842   0.095741042   0.658785856
|1516> H   0.564676744  -0.219660995   1.212170827
|1517> C   0.150911990  -0.079498362  -0.706516092
|1518> H  -0.700009624   0.254711637  -1.307112888
|1519> H   0.358111181  -1.130596049  -0.958469720
|1520> H   1.027684611   0.523013779  -0.985561692
|1521> *
|1522>
|1523>
|1524> $new_job
|1525>
|1526> # 5meoh.boyd.etal.dset.1meoh.dset-orca.engrad-mp2.def2tzvp
|1527> ! MP2 def2-TZVP EnGrad TightSCF FrozenCore
|1528>
|1529> %pal
|1530>     nprocs 12
|1531> end
|1532>
|1533> %maxcore 8000
|1534>
|1535> %scf
|1536>     ConvForced true
|1537> end
|1538>
|1539> *xyz 0 1
|1540> O  -0.110561342  -0.452054637  -0.516177971
|1541> H  -0.505067558  -1.257388701  -0.083888250
|1542> C   0.136395751   0.511352596   0.502110951
|1543> H   0.562104998   1.397911010   0.023905422
|1544> H   0.855944237   0.137544439   1.244093546
|1545> H  -0.783183468   0.804739620   1.026751285
|1546> *
|1547>
|1548>
|1549> $new_job
|1550>
|1551> # 5meoh.boyd.etal.dset.1meoh.dset-orca.engrad-mp2.def2tzvp
|1552> ! MP2 def2-TZVP EnGrad TightSCF FrozenCore
|1553>
|1554> %pal
|1555>     nprocs 12
|1556> end
|1557>
|1558> %maxcore 8000
|1559>
|1560> %scf
|1561>     ConvForced true
|1562> end
|1563>
|1564> *xyz 0 1
|1565> O   0.543852074   0.352787807   0.259355574
|1566> H   1.313001476  -0.257810955   0.235404930
|1567> C  -0.605145375  -0.324322996  -0.263850801
|1568> H  -1.361817430   0.429149327  -0.497206645
|1569> H  -1.007390734  -1.032280306   0.473238750
|1570> H  -0.366193440  -0.874723701  -1.184503215
|1571> *
|1572>
|1573>
|1574> $new_job
|1575>
|1576> # 5meoh.boyd.etal.dset.1meoh.dset-orca.engrad-mp2.def2tzvp
|1577> ! MP2 def2-TZVP EnGrad TightSCF FrozenCore
|1578>
|1579> %pal
|1580>     nprocs 12
|1581> end
|1582>
|1583> %maxcore 8000
|1584>
|1585> %scf
|1586>     ConvForced true
|1587> end
|1588>
|1589> *xyz 0 1
|1590> O  -0.215313842  -0.291417466   0.598986953
|1591> H   0.345756666   0.089690834   1.292240623
|1592> C   0.187908928   0.278547790  -0.656550869
|1593> H  -0.378176398  -0.248383463  -1.427791516
|1594> H   1.257674738   0.117157558  -0.838001365
|1595> H  -0.046395710   1.348438190  -0.711533597
|1596> *
|1597>
|1598>
|1599> $new_job
|1600>
|1601> # 5meoh.boyd.etal.dset.1meoh.dset-orca.engrad-mp2.def2tzvp
|1602> ! MP2 def2-TZVP EnGrad TightSCF FrozenCore
|1603>
|1604> %pal
|1605>     nprocs 12
|1606> end
|1607>
|1608> %maxcore 8000
|1609>
|1610> %scf
|1611>     ConvForced true
|1612> end
|1613>
|1614> *xyz 0 1
|1615> O   0.403989072  -0.463852863  -0.315269387
|1616> H   1.135427411   0.061213031  -0.713678044
|1617> C  -0.455108064   0.441681371   0.345247287
|1618> H  -1.268825687  -0.137957269   0.794244548
|1619> H  -0.903913829   1.176942153  -0.342427465
|1620> H   0.047306283   1.000114911   1.152600129
|1621> *
|1622>
|1623>
|1624> $new_job
|1625>
|1626> # 5meoh.boyd.etal.dset.1meoh.dset-orca.engrad-mp2.def2tzvp
|1627> ! MP2 def2-TZVP EnGrad TightSCF FrozenCore
|1628>
|1629> %pal
|1630>     nprocs 12
|1631> end
|1632>
|1633> %maxcore 8000
|1634>
|1635> %scf
|1636>     ConvForced true
|1637> end
|1638>
|1639> *xyz 0 1
|1640> O   0.043173803   0.010514972   0.696566413
|1641> H   1.008997795  -0.064445656   0.915256602
|1642> C  -0.102433399  -0.006427289  -0.728942687
|1643> H  -1.124413044   0.306437989  -0.957248440
|1644> H   0.051501743  -1.018362370  -1.119565892
|1645> H   0.599162331   0.686038054  -1.209926678
|1646> *
|1647>
|1648>
|1649> $new_job
|1650>
|1651> # 5meoh.boyd.etal.dset.1meoh.dset-orca.engrad-mp2.def2tzvp
|1652> ! MP2 def2-TZVP EnGrad TightSCF FrozenCore
|1653>
|1654> %pal
|1655>     nprocs 12
|1656> end
|1657>
|1658> %maxcore 8000
|1659>
|1660> %scf
|1661>     ConvForced true
|1662> end
|1663>
|1664> *xyz 0 1
|1665> O   0.668031569   0.076590501  -0.160566347
|1666> H   0.858874439   1.028333154  -0.053588582
|1667> C  -0.692469214  -0.134020475   0.157521120
|1668> H  -0.901811542  -1.198646980   0.012325569
|1669> H  -1.379096665   0.435237897  -0.491364789
|1670> H  -0.931096529   0.116246133   1.204500478
|1671> *
|1672>
|1673>
|1674> $new_job
|1675>
|1676> # 5meoh.boyd.etal.dset.1meoh.dset-orca.engrad-mp2.def2tzvp
|1677> ! MP2 def2-TZVP EnGrad TightSCF FrozenCore
|1678>
|1679> %pal
|1680>     nprocs 12
|1681> end
|1682>
|1683> %maxcore 8000
|1684>
|1685> %scf
|1686>     ConvForced true
|1687> end
|1688>
|1689> *xyz 0 1
|1690> O   0.107950026  -0.626124523   0.284670780
|1691> H  -0.332609795  -1.293601814  -0.291402351
|1692> C  -0.083344553   0.683103720  -0.258563682
|1693> H   0.290145943   1.388266059   0.486063936
|1694> H  -1.146596652   0.888963494  -0.434352512
|1695> H   0.468548368   0.815846984  -1.198245597
|1696> *
|1697>
|1698>
|1699> $new_job
|1700>
|1701> # 5meoh.boyd.etal.dset.1meoh.dset-orca.engrad-mp2.def2tzvp
|1702> ! MP2 def2-TZVP EnGrad TightSCF FrozenCore
|1703>
|1704> %pal
|1705>     nprocs 12
|1706> end
|1707>
|1708> %maxcore 8000
|1709>
|1710> %scf
|1711>     ConvForced true
|1712> end
|1713>
|1714> *xyz 0 1
|1715> O  -0.305304704   0.352351682  -0.516845555
|1716> H  -0.743687117   1.128157959  -0.104961520
|1717> C   0.338810377  -0.407929204   0.505456710
|1718> H   0.762623008  -1.294690999   0.028392586
|1719> H  -0.362048129  -0.729354816   1.287790705
|1720> H   1.152369683   0.163411893   0.970369193
|1721> *
|1722>
|1723>
|1724> $new_job
|1725>
|1726> # 5meoh.boyd.etal.dset.1meoh.dset-orca.engrad-mp2.def2tzvp
|1727> ! MP2 def2-TZVP EnGrad TightSCF FrozenCore
|1728>
|1729> %pal
|1730>     nprocs 12
|1731> end
|1732>
|1733> %maxcore 8000
|1734>
|1735> %scf
|1736>     ConvForced true
|1737> end
|1738>
|1739> *xyz 0 1
|1740> O   0.650261221   0.050560957  -0.229743700
|1741> H   0.668489696  -0.444332998  -1.070419625
|1742> C  -0.664162337  -0.022564920   0.283763350
|1743> H  -0.688984510   0.566066068   1.206304138
|1744> H  -0.969664601  -1.052263592   0.533169207
|1745> H  -1.418183954   0.396784489  -0.403344857
|1746> *
|1747>
|1748>                          ****END OF INPUT****
 Total Charge           Charge          ....    0
 Multiplicity           Mult            ....    1
 Number of Electrons    NEL             ....   18
MP2 TOTAL ENERGY:     -115.506600898 Eh
FINAL SINGLE POINT ENERGY      -115.506600898013
MP2 TOTAL ENERGY:     -115.506578484 Eh
FINAL SINGLE POINT ENERGY      -115.506578483642
MP2 TOTAL ENERGY:     -115.506612772 Eh
FINAL SINGLE POINT ENERGY      -115.506612772330
MP2 TOTAL ENERGY:     -115.506588711 Eh
FINAL SINGLE POINT ENERGY      -115.506588711145
MP2 TOTAL ENERGY:     -115.506619721 Eh
FINAL SINGLE POINT ENERGY      -115.506619720789
MP2 TOTAL ENERGY:     -115.506635556 Eh
FINAL SINGLE POINT ENERGY      -115.506635555526
FINAL SINGLE POINT ENERGY      -115.506558165959
FINAL SINGLE POINT ENERGY      -115.506675131674
FINAL SINGLE POINT ENERGY      -115.506588826425
FINAL SINGLE POINT ENERGY      -115.506704737001
FINAL SINGLE POINT ENERGY      -115.506901499461
FINAL SINGLE POINT ENERGY      -115.506601984749
FINAL SINGLE POINT ENERGY      -115.506671456888
FINAL SINGLE POINT ENERGY      -115.507333811897
MP2 TOTAL ENERGY:     -115.507022023 Eh
FINAL SINGLE POINT ENERGY      -115.507022023377
MP2 TOTAL ENERGY:     -115.506367859 Eh
FINAL SINGLE POINT ENERGY      -115.506367858946
MP2 TOTAL ENERGY:     -115.507278068 Eh
FINAL SINGLE POINT ENERGY      -115.507278068055
MP2 TOTAL ENERGY:     -115.506804853 Eh
FINAL SINGLE POINT ENERGY      -115.506804853384
MP2 TOTAL ENERGY:     -115.507144562 Eh
FINAL SINGLE POINT ENERGY      -115.507144561945

CARTESIAN COORDINATES (ANGSTROEM)
---------------------------------
  O      0.650261    0.050561   -0.229744
  H      0.668490   -0.444333   -1.070420
  C     -0.664162   -0.022565    0.283763
  H     -0.688985    0.566066    1.206304
  H     -0.969665   -1.052264    0.533169
  H     -1.418184    0.396784   -0.403345

 Multiplicity           Mult            ....    1
 Number of Electrons    NEL             ....   18
 Basis Dimension        Dim             ....   86

ORBITAL ENERGIES
----------------

  NO   OCC          E(Eh)            E(eV)
   0   2.0000     -20.557492      -559.3978
   1   2.0000     -11.271908      -306.7242
   2   2.0000      -1.355403       -36.8824
   3   2.0000      -0.920531       -25.0489
   4   2.0000      -0.688544       -18.7362
   5   2.0000      -0.617163       -16.7939
   6   2.0000      -0.593578       -16.1521
   7   2.0000      -0.500937       -13.6312
   8   2.0000      -0.449249       -12.2247
   9   0.0000       0.136044         3.7019
  10   0.0000       0.176046         4.7904
  11   0.0000       0.229430         6.2431
  12   0.0000       0.230922         6.2837
  13   0.0000       0.256240         6.9726

MULLIKEN ATOMIC CHARGES
-----------------------
   0 O :   -0.491051
   1 H :    0.320455
   2 C :   -0.173657
   3 H :    0.128577
   4 H :    0.107739
   5 H :    0.107938
Sum of atomic charges:   -0.0000000

LOEWDIN ATOMIC CHARGES
----------------------
   0 O :   -0.091584
   1 H :    0.180735
   2 C :   -0.390648
   3 H :    0.110651
   4 H :    0.095323
   5 H :    0.095522

  Mayer bond orders larger than 0.100000
B(  0-O ,  1-H ) :   0.8467 B(  0-O ,  2-C ) :   0.9300 B(  2-C ,  3-H ) :   0.9385
B(  2-C ,  4-H ) :   0.9373 B(  2-C ,  5-H ) :   0.9379

MP2 TOTAL ENERGY:     -115.507298915 Eh
FINAL SINGLE POINT ENERGY      -115.507298914794

DIPOLE MOMENT
-------------
                                X             Y             Z
Electronic contribution:      1.73814       0.16685      -0.56219
Nuclear contribution   :     -2.24968      -0.49999       0.24583
                        -----------------------------------------
Total Dipole Moment    :     -0.51153      -0.33314      -0.31636
                        -----------------------------------------
Magnitude (a.u.)       :      0.68756
Magnitude (Debye)      :      1.74763

Rotational constants in cm-1:     4.237991     0.829652     0.799192
Rotational constants in MHz : 127051.761372 24872.355043 23959.180024

                             ****ORCA TERMINATED NORMALLY****
TOTAL RUN TIME: 0 days 0 hours 24 minutes 17 seconds 949 msec
