                         Program Version 4.2.0 -  RELEASE  -
|  1> # 6h2o.temelso.etal.dset.1h2o.dset-orca.engrad-mp2.def2tzvp
|  2> ! MP2 def2-TZVP EnGrad TightSCF FrozenCore
|  3>
|  4> %pal
|  5>     nprocs 12
|  6> end
|  7>
|  8> %maxcore 8000
|  9>
| 10> %scf
| 11>     ConvForced true
| 12> end
| 13>
| 14> *xyz 0 1
| 15> O  -0.004671440  -0.047648690   0.050977441
| 16> H   0.185528560  -0.172648690  -0.894822559
| 17> H  -0.111371440   0.929051310   0.085577441
| 18> *
| 19>
| 20>
| 21> $new_job
| 22>
| 23> # 6h2o.temelso.etal.dset.1h2o.dset-orca.engrad-mp2.def2tzvp
| 24> ! MP2 def2-TZVP EnGrad TightSCF FrozenCore
| 25>
| 26> %pal
| 27>     nprocs 12
| 28> end
| 29>
| 30> %maxcore 8000
| 31>
| 32> %scf
| 33>     ConvForced true
| 34> end
| 35>
| 36> *xyz 0 1
| 37> O  -0.062216870   0.008565239   0.024347434
| 38> H   0.199783130  -0.284334761  -0.866152566
| 39> H   0.787883130   0.148365239   0.479647434
| 40> *
| 41>
| 42>
| 43> $new_job
| 44>
| 45> # 6h2o.temelso.etal.dset.1h2o.dset-orca.engrad-mp2.def2tzvp
| 46> ! MP2 def2-TZVP EnGrad TightSCF FrozenCore
| 47>
| 48> %pal
| 49>     nprocs 12
| 50> end
| 51>
| 52> %maxcore 8000
| 53>
| 54> %scf
| 55>     ConvForced true
| 56> end
| 57>
| 58> *xyz 0 1
| 59> O  -0.055357965   0.008688319   0.035167273
| 60> H   0.006842035  -0.078511681  -0.923632727
| 61> H   0.871942035  -0.059411681   0.365367273
| 62> *
| 63>
| 64>
| 65> $new_job
| 66>
| 67> # 6h2o.temelso.etal.dset.1h2o.dset-orca.engrad-mp2.def2tzvp
| 68> ! MP2 def2-TZVP EnGrad TightSCF FrozenCore
| 69>
| 70> %pal
| 71>     nprocs 12
| 72> end
| 73>
| 74> %maxcore 8000
| 75>
| 76> %scf
| 77>     ConvForced true
| 78> end
| 79>
| 80> *xyz 0 1
| 81> O   0.006226722  -0.015670304  -0.066759635
| 82> H   0.116226722   0.843029696   0.373540365
| 83> H  -0.215073278  -0.594270304   0.686240365
| 84> *
| 85>
| 86>
| 87> $new_job
| 88>
| 89> # 6h2o.temelso.etal.dset.1h2o.dset-orca.engrad-mp2.def2tzvp
| 90> ! MP2 def2-TZVP EnGrad TightSCF FrozenCore
| 91>
| 92> %pal
| 93>     nprocs 12
| 94> end
| 95>
| 96> %maxcore 8000
| 97>
| 98> %scf
| 99>     ConvForced true
|100> end
|101>
|102> *xyz 0 1
|103> O   0.049461320   0.040745028  -0.016554241
|104> H  -0.872838680  -0.000854972  -0.397154241
|105> H   0.087661320  -0.645954972   0.659945759
|106> *
|107>
|108>
|109> $new_job
|110>
|111> # 6h2o.temelso.etal.dset.1h2o.dset-orca.engrad-mp2.def2tzvp
|112> ! MP2 def2-TZVP EnGrad TightSCF FrozenCore
|113>
|114> %pal
|115>     nprocs 12
|116> end
|117>
|118> %maxcore 8000
|119>
|120> %scf
|121>     ConvForced true
|122> end
|123>
|124> *xyz 0 1
|125> O  -0.009549878   0.020817280  -0.061607065
|126> H   0.299050122   0.551817280   0.682792935
|127> H  -0.147449878  -0.882282720   0.295192935
|128> *
|129>
|130>
|131> $new_job
|132>
|133> # 6h2o.temelso.etal.dset.1h2o.dset-orca.engrad-mp2.def2tzvp
|134> ! MP2 def2-TZVP EnGrad TightSCF FrozenCore
|135>
|136> %pal
|137>     nprocs 12
|138> end
|139>
|140> %maxcore 8000
|141>
|142> %scf
|143>     ConvForced true
|144> end
|145>
|146> *xyz 0 1
|147> O  -0.061081178   0.014215724   0.020302583
|148> H   0.791018822   0.374815724   0.361302583
|149> H   0.178618822  -0.600484276  -0.683597417
|150> *
|151>
|152>
|153> $new_job
|154>
|155> # 6h2o.temelso.etal.dset.1h2o.dset-orca.engrad-mp2.def2tzvp
|156> ! MP2 def2-TZVP EnGrad TightSCF FrozenCore
|157>
|158> %pal
|159>     nprocs 12
|160> end
|161>
|162> %maxcore 8000
|163>
|164> %scf
|165>     ConvForced true
|166> end
|167>
|168> *xyz 0 1
|169> O   0.022624316   0.063867259   0.000251754
|170> H   0.471424316  -0.731632741  -0.339248246
|171> H  -0.830575684  -0.282232741   0.335251754
|172> *
|173>
|174>
|175> $new_job
|176>
|177> # 6h2o.temelso.etal.dset.1h2o.dset-orca.engrad-mp2.def2tzvp
|178> ! MP2 def2-TZVP EnGrad TightSCF FrozenCore
|179>
|180> %pal
|181>     nprocs 12
|182> end
|183>
|184> %maxcore 8000
|185>
|186> %scf
|187>     ConvForced true
|188> end
|189>
|190> *xyz 0 1
|191> O   0.036342126  -0.051620813   0.020196286
|192> H  -0.547457874   0.017279187  -0.785403714
|193> H  -0.029457874   0.802179187   0.464796286
|194> *
|195>
|196>
|197> $new_job
|198>
|199> # 6h2o.temelso.etal.dset.1h2o.dset-orca.engrad-mp2.def2tzvp
|200> ! MP2 def2-TZVP EnGrad TightSCF FrozenCore
|201>
|202> %pal
|203>     nprocs 12
|204> end
|205>
|206> %maxcore 8000
|207>
|208> %scf
|209>     ConvForced true
|210> end
|211>
|212> *xyz 0 1
|213> O  -0.049108864  -0.034115500   0.032795188
|214> H   0.394591136  -0.258715500  -0.805404812
|215> H   0.384991136   0.800284500   0.284795188
|216> *
|217>
|218>
|219> $new_job
|220>
|221> # 6h2o.temelso.etal.dset.1h2o.dset-orca.engrad-mp2.def2tzvp
|222> ! MP2 def2-TZVP EnGrad TightSCF FrozenCore
|223>
|224> %pal
|225>     nprocs 12
|226> end
|227>
|228> %maxcore 8000
|229>
|230> %scf
|231>     ConvForced true
|232> end
|233>
|234> *xyz 0 1
|235> O   0.003753936  -0.008291107  -0.065707862
|236> H  -0.615346064   0.563708893   0.439792138
|237> H   0.555753936  -0.432091107   0.603292138
|238> *
|239>
|240>
|241> $new_job
|242>
|243> # 6h2o.temelso.etal.dset.1h2o.dset-orca.engrad-mp2.def2tzvp
|244> ! MP2 def2-TZVP EnGrad TightSCF FrozenCore
|245>
|246> %pal
|247>     nprocs 12
|248> end
|249>
|250> %maxcore 8000
|251>
|252> %scf
|253>     ConvForced true
|254> end
|255>
|256> *xyz 0 1
|257> O   0.004766547   0.064107824  -0.013975159
|258> H   0.682266547  -0.515792176   0.401824841
|259> H  -0.757933453  -0.501892176  -0.179975159
|260> *
|261>
|262>
|263> $new_job
|264>
|265> # 6h2o.temelso.etal.dset.1h2o.dset-orca.engrad-mp2.def2tzvp
|266> ! MP2 def2-TZVP EnGrad TightSCF FrozenCore
|267>
|268> %pal
|269>     nprocs 12
|270> end
|271>
|272> %maxcore 8000
|273>
|274> %scf
|275>     ConvForced true
|276> end
|277>
|278> *xyz 0 1
|279> O  -0.013035276   0.038647076   0.052588668
|280> H  -0.655335276  -0.466152924  -0.460611332
|281> H   0.862264724  -0.147352924  -0.374211332
|282> *
|283>
|284>
|285> $new_job
|286>
|287> # 6h2o.temelso.etal.dset.1h2o.dset-orca.engrad-mp2.def2tzvp
|288> ! MP2 def2-TZVP EnGrad TightSCF FrozenCore
|289>
|290> %pal
|291>     nprocs 12
|292> end
|293>
|294> %maxcore 8000
|295>
|296> %scf
|297>     ConvForced true
|298> end
|299>
|300> *xyz 0 1
|301> O  -0.052543912  -0.038289026  -0.019066189
|302> H   0.730856088  -0.295689026   0.511233811
|303> H   0.103256088   0.903510974  -0.208566189
|304> *
|305>
|306>
|307> $new_job
|308>
|309> # 6h2o.temelso.etal.dset.1h2o.dset-orca.engrad-mp2.def2tzvp
|310> ! MP2 def2-TZVP EnGrad TightSCF FrozenCore
|311>
|312> %pal
|313>     nprocs 12
|314> end
|315>
|316> %maxcore 8000
|317>
|318> %scf
|319>     ConvForced true
|320> end
|321>
|322> *xyz 0 1
|323> O  -0.055676853  -0.032370003   0.016101084
|324> H   0.752523147  -0.414170003  -0.347398916
|325> H   0.131323147   0.928029997   0.091801084
|326> *
|327>
|328>
|329> $new_job
|330>
|331> # 6h2o.temelso.etal.dset.1h2o.dset-orca.engrad-mp2.def2tzvp
|332> ! MP2 def2-TZVP EnGrad TightSCF FrozenCore
|333>
|334> %pal
|335>     nprocs 12
|336> end
|337>
|338> %maxcore 8000
|339>
|340> %scf
|341>     ConvForced true
|342> end
|343>
|344> *xyz 0 1
|345> O   0.044549315  -0.045466820  -0.017992038
|346> H  -0.758950685   0.237933180  -0.502892038
|347> H   0.051749315   0.483833180   0.788507962
|348> *
|349>
|350>
|351> $new_job
|352>
|353> # 6h2o.temelso.etal.dset.1h2o.dset-orca.engrad-mp2.def2tzvp
|354> ! MP2 def2-TZVP EnGrad TightSCF FrozenCore
|355>
|356> %pal
|357>     nprocs 12
|358> end
|359>
|360> %maxcore 8000
|361>
|362> %scf
|363>     ConvForced true
|364> end
|365>
|366> *xyz 0 1
|367> O   0.019379484   0.036974309  -0.051894945
|368> H  -0.164620516  -0.935325691  -0.022994945
|369> H  -0.143020516   0.348374309   0.846805055
|370> *
|371>
|372>
|373> $new_job
|374>
|375> # 6h2o.temelso.etal.dset.1h2o.dset-orca.engrad-mp2.def2tzvp
|376> ! MP2 def2-TZVP EnGrad TightSCF FrozenCore
|377>
|378> %pal
|379>     nprocs 12
|380> end
|381>
|382> %maxcore 8000
|383>
|384> %scf
|385>     ConvForced true
|386> end
|387>
|388> *xyz 0 1
|389> O   0.051094926  -0.038798129   0.016610187
|390> H   0.020694926   0.578901871  -0.724289813
|391> H  -0.831805074   0.037001871   0.460610187
|392> *
|393>
|394>
|395> $new_job
|396>
|397> # 6h2o.temelso.etal.dset.1h2o.dset-orca.engrad-mp2.def2tzvp
|398> ! MP2 def2-TZVP EnGrad TightSCF FrozenCore
|399>
|400> %pal
|655> H   0.007421132  -0.944099007   0.066447759
|656> *
|657>
|658>
|659> $new_job
|660>
|661> # 6h2o.temelso.etal.dset.1h2o.dset-orca.engrad-mp2.def2tzvp
|662> ! MP2 def2-TZVP EnGrad TightSCF FrozenCore
|663>
|664> %pal
|665>     nprocs 12
|666> end
|667>
|668> %maxcore 8000
|669>
|670> %scf
|671>     ConvForced true
|672> end
|673>
|674> *xyz 0 1
|675> O  -0.034305714  -0.049785804   0.028705580
|676> H   0.847294286  -0.085785804  -0.435794420
|677> H  -0.302705714   0.876114196  -0.019894420
|678> *
|679>
|680>
|681> $new_job
|682>
|683> # 6h2o.temelso.etal.dset.1h2o.dset-orca.engrad-mp2.def2tzvp
|684> ! MP2 def2-TZVP EnGrad TightSCF FrozenCore
|685>
|686> %pal
|687>     nprocs 12
|688> end
|689>
|690> %maxcore 8000
|691>
|692> %scf
|693>     ConvForced true
|694> end
|695>
|696> *xyz 0 1
|697> O   0.040644327  -0.049774615  -0.023111041
|698> H   0.121744327   0.471625385   0.798388959
|699> H  -0.766955673   0.318525385  -0.431511041
|700> *
|701>
|702>
|703> $new_job
|704>
|705> # 6h2o.temelso.etal.dset.1h2o.dset-orca.engrad-mp2.def2tzvp
|706> ! MP2 def2-TZVP EnGrad TightSCF FrozenCore
|707>
|708> %pal
|709>     nprocs 12
|710> end
|711>
|712> %maxcore 8000
|713>
|714> %scf
|715>     ConvForced true
|716> end
|717>
|718> *xyz 0 1
|719> O  -0.050423581   0.040840136  -0.018059172
|720> H   0.730276419   0.276040136   0.499240828
|721> H   0.070176419  -0.924359864  -0.212559172
|722> *
|723>
|724>
|725> $new_job
|726>
|727> # 6h2o.temelso.etal.dset.1h2o.dset-orca.engrad-mp2.def2tzvp
|728> ! MP2 def2-TZVP EnGrad TightSCF FrozenCore
|729>
|730> %pal
|731>     nprocs 12
|732> end
|733>
|734> %maxcore 8000
|735>
|736> %scf
|737>     ConvForced true
|738> end
|739>
|740> *xyz 0 1
|741> O   0.044985689   0.046462647   0.015301065
|742> H  -0.050114311  -0.398237353  -0.835398935
|743> H  -0.664014311  -0.339337353   0.592501065
|744> *
|745>
|746>
|747> $new_job
|748>
|749> # 6h2o.temelso.etal.dset.1h2o.dset-orca.engrad-mp2.def2tzvp
|750> ! MP2 def2-TZVP EnGrad TightSCF FrozenCore
|751>
|752> %pal
|753>     nprocs 12
|754> end
|755>
|756> %maxcore 8000
|757>
|758> %scf
|759>     ConvForced true
|760> end
|761>
|762> *xyz 0 1
|763> O   0.047676662  -0.043055573  -0.014775178
|764> H  -0.450723338   0.008144427   0.809624822
|765> H  -0.306123338   0.675344427  -0.575075178
|766> *
|767>
|768>
|769> $new_job
|770>
|771> # 6h2o.temelso.etal.dset.1h2o.dset-orca.engrad-mp2.def2tzvp
|772> ! MP2 def2-TZVP EnGrad TightSCF FrozenCore
|773>
|774> %pal
|775>     nprocs 12
|776> end
|777>
|778> %maxcore 8000
|779>
|780> %scf
|781>     ConvForced true
|782> end
|783>
|784> *xyz 0 1
|785> O   0.033690315  -0.048499060  -0.029337763
|786> H   0.378690315   0.800700940   0.313162237
|787> H  -0.913509685  -0.030799060   0.152562237
|788> *
|789>
|790>
|791> $new_job
|792>
|793> # 6h2o.temelso.etal.dset.1h2o.dset-orca.engrad-mp2.def2tzvp
|794> ! MP2 def2-TZVP EnGrad TightSCF FrozenCore
|795>
|796> %pal
|797>     nprocs 12
|798> end
|799>
|800> %maxcore 8000
|801>
|802> %scf
|803>     ConvForced true
|804> end
|805>
|806> *xyz 0 1
|807> O  -0.061170691   0.024946050   0.006355396
|808> H   0.183429309  -0.907753950   0.018855396
|809> H   0.787629309   0.511746050  -0.119744604
|810> *
|811>
|812>
|813> $new_job
|814>
|815> # 6h2o.temelso.etal.dset.1h2o.dset-orca.engrad-mp2.def2tzvp
|816> ! MP2 def2-TZVP EnGrad TightSCF FrozenCore
|817>
|818> %pal
|819>     nprocs 12
|820> end
|821>
|822> %maxcore 8000
|823>
|824> %scf
|825>     ConvForced true
|826> end
|827>
|828> *xyz 0 1
|829> O  -0.021287221  -0.062463029  -0.010696759
|830> H  -0.102287221   0.724436971  -0.600096759
|831> H   0.440212779   0.267136971   0.769903241
|832> *
|833>
|834>
|835> $new_job
|836>
|837> # 6h2o.temelso.etal.dset.1h2o.dset-orca.engrad-mp2.def2tzvp
|838> ! MP2 def2-TZVP EnGrad TightSCF FrozenCore
|839>
|840> %pal
|841>     nprocs 12
|842> end
|843>
|844> %maxcore 8000
|845>
|846> %scf
|847>     ConvForced true
|848> end
|849>
|850> *xyz 0 1
|851> O   0.042294716  -0.021762757   0.046250055
|852> H  -0.767005284   0.527337243   0.169150055
|853> H   0.095594716  -0.181862757  -0.903349945
|854> *
|855>
|856>
|857> $new_job
|858>
|859> # 6h2o.temelso.etal.dset.1h2o.dset-orca.engrad-mp2.def2tzvp
|860> ! MP2 def2-TZVP EnGrad TightSCF FrozenCore
|861>
|862> %pal
|863>     nprocs 12
|864> end
|865>
|866> %maxcore 8000
|867>
|868> %scf
|869>     ConvForced true
|870> end
|871>
|872> *xyz 0 1
|873> O  -0.042686334   0.043217815   0.026769870
|874> H  -0.090686334  -0.341882185  -0.856230130
|875> H   0.768313666  -0.344182185   0.431269870
|876> *
|877>
|878>
|879> $new_job
|880>
|881> # 6h2o.temelso.etal.dset.1h2o.dset-orca.engrad-mp2.def2tzvp
|882> ! MP2 def2-TZVP EnGrad TightSCF FrozenCore
|883>
|884> %pal
|885>     nprocs 12
|886> end
|887>
|888> %maxcore 8000
|889>
|890> %scf
|891>     ConvForced true
|892> end
|893>
|894> *xyz 0 1
|895> O   0.061495174  -0.016912292   0.018461979
|896> H  -0.192704826   0.762387708  -0.489538021
|897> H  -0.783504826  -0.493912292   0.196461979
|898> *
|899>
|900>
|901> $new_job
|902>
|903> # 6h2o.temelso.etal.dset.1h2o.dset-orca.engrad-mp2.def2tzvp
|904> ! MP2 def2-TZVP EnGrad TightSCF FrozenCore
|905>
|906> %pal
|907>     nprocs 12
|908> end
|909>
|910> %maxcore 8000
|911>
|912> %scf
|913>     ConvForced true
|914> end
|915>
|916> *xyz 0 1
|917> O   0.020867631   0.046373135  -0.043346489
|918> H   0.092467631  -0.935026865  -0.111146489
|919> H  -0.423732369   0.198873135   0.799253511
|920> *
|921>
|922>
|923> $new_job
|924>
|925> # 6h2o.temelso.etal.dset.1h2o.dset-orca.engrad-mp2.def2tzvp
|926> ! MP2 def2-TZVP EnGrad TightSCF FrozenCore
|927>
|928> %pal
|929>     nprocs 12
|930> end
|931>
|932> %maxcore 8000
|933>
|934> %scf
|935>     ConvForced true
|936> end
|937>
|938> *xyz 0 1
|939> O   0.007586195   0.046831887  -0.046792725
|940> H  -0.106613805   0.188431887   0.900907275
|941> H  -0.013813805  -0.931868113  -0.158092725
|942> *
|943>
|944>
|945> $new_job
|946>
|947> # 6h2o.temelso.etal.dset.1h2o.dset-orca.engrad-mp2.def2tzvp
|948> ! MP2 def2-TZVP EnGrad TightSCF FrozenCore
|949>
|950> %pal
|951>     nprocs 12
|952> end
|953>
|954> %maxcore 8000
|955>
|956> %scf
|957>     ConvForced true
|958> end
|959>
|960> *xyz 0 1
|961> O   0.002998673   0.052935529   0.039659688
|962> H   0.718098673  -0.331064471  -0.519640312
|963> H  -0.765701327  -0.509264471  -0.109940312
|964> *
|965>
|966>
|967> $new_job
|968>
|969> # 6h2o.temelso.etal.dset.1h2o.dset-orca.engrad-mp2.def2tzvp
|970> ! MP2 def2-TZVP EnGrad TightSCF FrozenCore
|971>
|972> %pal
|973>     nprocs 12
|974> end
|975>
|976> %maxcore 8000
|977>
|978> %scf
|979>     ConvForced true
|980> end
|981>
|982> *xyz 0 1
|983> O  -0.050876739  -0.020324961   0.038238675
|984> H   0.845923261   0.282775039   0.317338675
|985> H  -0.038276739   0.039875039  -0.924361325
|986> *
|987>
|988>
|989> $new_job
|990>
|991> # 6h2o.temelso.etal.dset.1h2o.dset-orca.engrad-mp2.def2tzvp
|992> ! MP2 def2-TZVP EnGrad TightSCF FrozenCore
|993>
|994> %pal
|995>     nprocs 12
|996> end
|997>
|998> %maxcore 8000
|999>
|1000> %scf
|1001>     ConvForced true
|1002> end
|1003>
|1004> *xyz 0 1
|1005> O   0.059436384   0.009555473   0.028733553
|1006> H  -0.192163616   0.247855473  -0.871466447
|1007> H  -0.751363616  -0.399544527   0.415333553
|1008> *
|1009>
|1010>
|1011> $new_job
|1012>
|1013> # 6h2o.temelso.etal.dset.1h2o.dset-orca.engrad-mp2.def2tzvp
|1014> ! MP2 def2-TZVP EnGrad TightSCF FrozenCore
|1015>
|1016> %pal
|1017>     nprocs 12
|1018> end
|1019>
|1020> %maxcore 8000
|1021>
|1022> %scf
|1023>     ConvForced true
|1024> end
|1025>
|1026> *xyz 0 1
|1027> O  -0.021320789  -0.030993747  -0.055044670
|1028> H   0.335979211  -0.443893747   0.740555330
|1029> H   0.002479211   0.935906253   0.133255330
|1030> *
|1031>
|1032>
|1033> $new_job
|1034>
|1035> # 6h2o.temelso.etal.dset.1h2o.dset-orca.engrad-mp2.def2tzvp
|1036> ! MP2 def2-TZVP EnGrad TightSCF FrozenCore
|1037>
|1038> %pal
|1039>     nprocs 12
|1040> end
|1041>
|1042> %maxcore 8000
|1043>
|1044> %scf
|1045>     ConvForced true
|1046> end
|1047>
|1048> *xyz 0 1
|1049> O   0.004979140  -0.062356733   0.021813108
|1050> H  -0.811720860   0.441743267  -0.203186892
|1051> H   0.732679140   0.548143267  -0.143086892
|1052> *
|1053>
|1054>                          ****END OF INPUT****
 Total Charge           Charge          ....    0
 Multiplicity           Mult            ....    1
 Number of Electrons    NEL             ....   10
MP2 TOTAL ENERGY:      -76.312294073 Eh
FINAL SINGLE POINT ENERGY       -76.312294072624
MP2 TOTAL ENERGY:      -76.312805178 Eh
FINAL SINGLE POINT ENERGY       -76.312805178476
MP2 TOTAL ENERGY:      -76.312466095 Eh
FINAL SINGLE POINT ENERGY       -76.312466095326
MP2 TOTAL ENERGY:      -76.312674998 Eh
FINAL SINGLE POINT ENERGY       -76.312674997816
MP2 TOTAL ENERGY:      -76.311779485 Eh
FINAL SINGLE POINT ENERGY       -76.311779485267
MP2 TOTAL ENERGY:      -76.312676913 Eh
FINAL SINGLE POINT ENERGY       -76.312676912728
FINAL SINGLE POINT ENERGY       -76.312471283677
FINAL SINGLE POINT ENERGY       -76.312639778335
FINAL SINGLE POINT ENERGY       -76.311879343197
FINAL SINGLE POINT ENERGY       -76.312741427979
FINAL SINGLE POINT ENERGY       -76.312528515343
FINAL SINGLE POINT ENERGY       -76.312534337614
FINAL SINGLE POINT ENERGY       -76.312494578103
FINAL SINGLE POINT ENERGY       -76.312520895446
MP2 TOTAL ENERGY:      -76.312560784 Eh
FINAL SINGLE POINT ENERGY       -76.312560783715
MP2 TOTAL ENERGY:      -76.312520536 Eh
FINAL SINGLE POINT ENERGY       -76.312520536169
MP2 TOTAL ENERGY:      -76.312496076 Eh
FINAL SINGLE POINT ENERGY       -76.312496076135
MP2 TOTAL ENERGY:      -76.312487165 Eh
FINAL SINGLE POINT ENERGY       -76.312487164806
MP2 TOTAL ENERGY:      -76.312557845 Eh
FINAL SINGLE POINT ENERGY       -76.312557844637

CARTESIAN COORDINATES (ANGSTROEM)
---------------------------------
  O      0.004979   -0.062357    0.021813
  H     -0.811721    0.441743   -0.203187
  H      0.732679    0.548143   -0.143087

 Multiplicity           Mult            ....    1
 Number of Electrons    NEL             ....   10
 Basis Dimension        Dim             ....   43

ORBITAL ENERGIES
----------------

  NO   OCC          E(Eh)            E(eV)
   0   2.0000     -20.562561      -559.5357
   1   2.0000      -1.340390       -36.4739
   2   2.0000      -0.706560       -19.2265
   3   2.0000      -0.576526       -15.6881
   4   2.0000      -0.506422       -13.7804
   5   0.0000       0.125887         3.4256
   6   0.0000       0.195652         5.3240
   7   0.0000       0.520083        14.1522
   8   0.0000       0.563679        15.3385
   9   0.0000       0.597767        16.2661

MULLIKEN ATOMIC CHARGES
-----------------------
   0 O :   -0.677378
   1 H :    0.339914
   2 H :    0.337464
Sum of atomic charges:   -0.0000000

LOEWDIN ATOMIC CHARGES
----------------------
   0 O :   -0.334069
   1 H :    0.174516
   2 H :    0.159553

  Mayer bond orders larger than 0.100000
B(  0-O ,  1-H ) :   0.8493 B(  0-O ,  2-H ) :   0.8540

MP2 TOTAL ENERGY:      -76.312520684 Eh
FINAL SINGLE POINT ENERGY       -76.312520683954

DIPOLE MOMENT
-------------
                                X             Y             Z
Electronic contribution:      0.01723      -0.14590       0.05139
Nuclear contribution   :     -0.07408       0.92775      -0.32454
                        -----------------------------------------
Total Dipole Moment    :     -0.05685       0.78185      -0.27315
                        -----------------------------------------
Magnitude (a.u.)       :      0.83014
Magnitude (Debye)      :      2.11005

Rotational constants in cm-1:    26.887698    13.927966     9.175177
Rotational constants in MHz : 806072.911074 417549.929897 275064.894378

                             ****ORCA TERMINATED NORMALLY****
TOTAL RUN TIME: 0 days 0 hours 4 minutes 10 seconds 246 msec
