                         Program Version 4.2.0 -  RELEASE  -
|  1> # 62meoh.sphere.gfn2.md.500k.prod1.3meoh.cm.14.dset.1meoh.dset-orca.engrad-mp2.def2tzvp-13000.to.13005
|  2> ! MP2 def2-TZVP EnGrad TightSCF FrozenCore
|  3>
|  4> %pal
|  5>     nprocs 12
|  6> end
|  7>
|  8> %maxcore 8000
|  9>
| 10> %scf
| 11>     ConvForced true
| 12> end
| 13>
| 14> *xyz 0 1
| 15> O  -0.296592244   0.598934382  -0.161854634
| 16> H  -1.226282463   0.617471316   0.078015475
| 17> C   0.354724616  -0.615974802   0.155132215
| 18> H  -0.232328476  -1.266713870   0.712926652
| 19> H   1.368686112  -0.423303122   0.694656073
| 20> H   0.571238793  -1.095217226  -0.764807903
| 21> *
| 22>
| 23>
| 24> $new_job
| 25>
| 26> # 62meoh.sphere.gfn2.md.500k.prod1.3meoh.cm.14.dset.1meoh.dset-orca.engrad-mp2.def2tzvp-13000.to.13005
| 27> ! MP2 def2-TZVP EnGrad TightSCF FrozenCore
| 28>
| 29> %pal
| 30>     nprocs 12
| 31> end
| 32>
| 33> %maxcore 8000
| 34>
| 35> %scf
| 36>     ConvForced true
| 37> end
| 38>
| 39> *xyz 0 1
| 40> O  -0.501093519   0.382030058   0.264949944
| 41> H  -1.324311883   0.039840761  -0.303979143
| 42> C   0.559183812  -0.377850159  -0.242988588
| 43> H   0.604036967  -0.569222240  -1.363880153
| 44> H   0.599510013  -1.302791414   0.323610433
| 45> H   1.412077350   0.270138160   0.033776609
| 46> *
| 47>
| 48>
| 49> $new_job
| 50>
| 51> # 62meoh.sphere.gfn2.md.500k.prod1.3meoh.cm.14.dset.1meoh.dset-orca.engrad-mp2.def2tzvp-13000.to.13005
| 52> ! MP2 def2-TZVP EnGrad TightSCF FrozenCore
| 53>
| 54> %pal
| 55>     nprocs 12
| 56> end
| 57>
| 58> %maxcore 8000
| 59>
| 60> %scf
| 61>     ConvForced true
| 62> end
| 63>
| 64> *xyz 0 1
| 65> O  -0.057326579  -0.300712381   0.631243289
| 66> H   0.051851337   0.300350729   1.365291767
| 67> C   0.065816489   0.266473683  -0.716069623
| 68> H  -0.977186715   0.589234506  -0.906449655
| 69> H   0.432058824  -0.444932140  -1.350074698
| 70> H   0.619030603   1.153680032  -0.596672806
| 71> *
| 72>
| 73>
| 74> $new_job
| 75>
| 76> # 62meoh.sphere.gfn2.md.500k.prod1.3meoh.cm.14.dset.1meoh.dset-orca.engrad-mp2.def2tzvp-13000.to.13005
| 77> ! MP2 def2-TZVP EnGrad TightSCF FrozenCore
| 78>
| 79> %pal
| 80>     nprocs 12
| 81> end
| 82>
| 83> %maxcore 8000
| 84>
| 85> %scf
| 86>     ConvForced true
| 87> end
| 88>
| 89> *xyz 0 1
| 90> O  -0.227151379  -0.500396586   0.426405375
| 91> H   0.478637727  -0.729942717   0.991349900
| 92> C   0.185744181   0.536327012  -0.473153982
| 93> H   1.261703524   0.312978500  -0.840638954
| 94> H   0.241338182   1.549731502  -0.015299205
| 95> H  -0.589108776   0.419847326  -1.266228452
| 96> *
| 97>
| 98>
| 99> $new_job
|100>
|101> # 62meoh.sphere.gfn2.md.500k.prod1.3meoh.cm.14.dset.1meoh.dset-orca.engrad-mp2.def2tzvp-13000.to.13005
|102> ! MP2 def2-TZVP EnGrad TightSCF FrozenCore
|103>
|104> %pal
|105>     nprocs 12
|106> end
|107>
|108> %maxcore 8000
|109>
|110> %scf
|111>     ConvForced true
|112> end
|113>
|114> *xyz 0 1
|115> O   0.416210803   0.181263586   0.535268076
|116> H  -0.216563428   0.528978310   1.154505750
|117> C  -0.389362416  -0.209622924  -0.596796106
|118> H  -1.031746518  -1.043448866  -0.355000268
|119> H   0.359126150  -0.485177141  -1.344203853
|120> H  -1.078273581   0.620069505  -0.840925825
|121> *
|122>
|123>
|124> $new_job
|125>
|126> # 62meoh.sphere.gfn2.md.500k.prod1.3meoh.cm.14.dset.1meoh.dset-orca.engrad-mp2.def2tzvp-13000.to.13005
|127> ! MP2 def2-TZVP EnGrad TightSCF FrozenCore
|128>
|129> %pal
|130>     nprocs 12
|131> end
|132>
|133> %maxcore 8000
|134>
|135> %scf
|136>     ConvForced true
|137> end
|138>
|139> *xyz 0 1
|140> O  -0.370708889   0.269271101   0.493191826
|141> H  -0.406036111   1.137496662   0.271694491
|142> C   0.381945875  -0.324473266  -0.499216783
|143> H   0.197924650  -0.074176131  -1.532203152
|144> H   0.214705587  -1.419166949  -0.369059360
|145> H   1.326916611  -0.052236498  -0.250886168
|146> *
|147>
|148>                          ****END OF INPUT****
 Total Charge           Charge          ....    0
 Multiplicity           Mult            ....    1
 Number of Electrons    NEL             ....   18
MP2 TOTAL ENERGY:     -115.498546603 Eh
FINAL SINGLE POINT ENERGY      -115.498546602728
MP2 TOTAL ENERGY:     -115.493604821 Eh
FINAL SINGLE POINT ENERGY      -115.493604821221
MP2 TOTAL ENERGY:     -115.492340102 Eh
FINAL SINGLE POINT ENERGY      -115.492340101556
MP2 TOTAL ENERGY:     -115.499582637 Eh
FINAL SINGLE POINT ENERGY      -115.499582637272
MP2 TOTAL ENERGY:     -115.503662566 Eh
FINAL SINGLE POINT ENERGY      -115.503662566291

CARTESIAN COORDINATES (ANGSTROEM)
---------------------------------
  O     -0.370709    0.269271    0.493192
  H     -0.406036    1.137497    0.271694
  C      0.381946   -0.324473   -0.499217
  H      0.197925   -0.074176   -1.532203
  H      0.214706   -1.419167   -0.369059
  H      1.326917   -0.052236   -0.250886

 Multiplicity           Mult            ....    1
 Number of Electrons    NEL             ....   18
 Basis Dimension        Dim             ....   86

ORBITAL ENERGIES
----------------

  NO   OCC          E(Eh)            E(eV)
   0   2.0000     -20.545148      -559.0619
   1   2.0000     -11.256230      -306.2976
   2   2.0000      -1.388312       -37.7779
   3   2.0000      -0.934962       -25.4416
   4   2.0000      -0.714165       -19.4334
   5   2.0000      -0.644534       -17.5387
   6   2.0000      -0.591543       -16.0967
   7   2.0000      -0.505516       -13.7558
   8   2.0000      -0.450303       -12.2534
   9   0.0000       0.140021         3.8102
  10   0.0000       0.184948         5.0327
  11   0.0000       0.224798         6.1171
  12   0.0000       0.235608         6.4112
  13   0.0000       0.261447         7.1143

MULLIKEN ATOMIC CHARGES
-----------------------
   0 O :   -0.471673
   1 H :    0.298686
   2 C :   -0.161992
   3 H :    0.104330
   4 H :    0.120404
   5 H :    0.110246
Sum of atomic charges:   -0.0000000

LOEWDIN ATOMIC CHARGES
----------------------
   0 O :   -0.027841
   1 H :    0.129648
   2 C :   -0.392317
   3 H :    0.092133
   4 H :    0.117701
   5 H :    0.080676

  Mayer bond orders larger than 0.100000
B(  0-O ,  1-H ) :   0.8767 B(  0-O ,  2-C ) :   0.9167 B(  2-C ,  3-H ) :   0.9341
B(  2-C ,  4-H ) :   0.9392 B(  2-C ,  5-H ) :   0.9624

MP2 TOTAL ENERGY:     -115.490045500 Eh
FINAL SINGLE POINT ENERGY      -115.490045499503

DIPOLE MOMENT
-------------
                                X             Y             Z
Electronic contribution:     -0.96677       0.72440       1.22563
Nuclear contribution   :      1.24550      -0.37881      -1.75678
                        -----------------------------------------
Total Dipole Moment    :      0.27872       0.34559      -0.53116
                        -----------------------------------------
Magnitude (a.u.)       :      0.69228
Magnitude (Debye)      :      1.75963

Rotational constants in cm-1:     4.507833     0.888910     0.849718
Rotational constants in MHz : 135141.435236 26648.844867 25473.901341

                             ****ORCA TERMINATED NORMALLY****
TOTAL RUN TIME: 0 days 0 hours 0 minutes 42 seconds 366 msec
