                         Program Version 4.2.0 -  RELEASE  -
|  1> # 16h2o.yoo.etal.boat.b.1h2o.dset-orca.engrad-mp2.def2tzvp
|  2> ! MP2 def2-TZVP EnGrad TightSCF FrozenCore
|  3>
|  4> %pal
|  5>     nprocs 6
|  6> end
|  7>
|  8> %maxcore 8000
|  9>
| 10> %scf
| 11>     ConvForced true
| 12> end
| 13>
| 14> *xyz 0 1
| 15> O  -0.017510030   0.573244670  -1.880417680
| 16> H  -0.017511080  -0.356659160  -1.566506460
| 17> H  -0.902468370   0.728418280  -2.260527680
| 18> *
| 19>
| 20>
| 21> $new_job
| 22>
| 23> # 16h2o.yoo.etal.boat.b.1h2o.dset-orca.engrad-mp2.def2tzvp
| 24> ! MP2 def2-TZVP EnGrad TightSCF FrozenCore
| 25>
| 26> %pal
| 27>     nprocs 6
| 28> end
| 29>
| 30> %maxcore 8000
| 31>
| 32> %scf
| 33>     ConvForced true
| 34> end
| 35>
| 36> *xyz 0 1
| 37> O   2.710977890  -1.007649920   2.453583990
| 38> H   3.095340150  -1.237775820   3.304402510
| 39> H   3.217836140  -0.217371200   2.127506060
| 40> *
| 41>
| 42>
| 43> $new_job
| 44>
| 45> # 16h2o.yoo.etal.boat.b.1h2o.dset-orca.engrad-mp2.def2tzvp
| 46> ! MP2 def2-TZVP EnGrad TightSCF FrozenCore
| 47>
| 48> %pal
| 49>     nprocs 6
| 50> end
| 51>
| 52> %maxcore 8000
| 53>
| 54> %scf
| 55>     ConvForced true
| 56> end
| 57>
| 58> *xyz 0 1
| 59> O  -4.028921630  -1.127597820  -1.284667630
| 60> H  -3.624752380  -0.420841470  -1.818437440
| 61> H  -4.302124920  -0.677252940  -0.465947470
| 62> *
| 63>
| 64>
| 65> $new_job
| 66>
| 67> # 16h2o.yoo.etal.boat.b.1h2o.dset-orca.engrad-mp2.def2tzvp
| 68> ! MP2 def2-TZVP EnGrad TightSCF FrozenCore
| 69>
| 70> %pal
| 71>     nprocs 6
| 72> end
| 73>
| 74> %maxcore 8000
| 75>
| 76> %scf
| 77>     ConvForced true
| 78> end
| 79>
| 80> *xyz 0 1
| 81> O  -2.704896140   1.134525770  -2.411615390
| 82> H  -2.804906650   1.640168540  -1.559560500
| 83> H  -3.075139180   1.692874700  -3.101559620
| 84> *
| 85>
| 86>
| 87> $new_job
| 88>
| 89> # 16h2o.yoo.etal.boat.b.1h2o.dset-orca.engrad-mp2.def2tzvp
| 90> ! MP2 def2-TZVP EnGrad TightSCF FrozenCore
| 91>
| 92> %pal
| 93>     nprocs 6
| 94> end
| 95>
| 96> %maxcore 8000
| 97>
| 98> %scf
| 99>     ConvForced true
|100> end
|101>
|102> *xyz 0 1
|103> O   0.036642070  -0.556939210   1.849706880
|104> H   0.930759800  -0.692183920   2.219352370
|105> H   0.014737380   0.373062460   1.536336060
|106> *
|107>
|108>
|109> $new_job
|110>
|111> # 16h2o.yoo.etal.boat.b.1h2o.dset-orca.engrad-mp2.def2tzvp
|112> ! MP2 def2-TZVP EnGrad TightSCF FrozenCore
|113>
|114> %pal
|115>     nprocs 6
|116> end
|117>
|118> %maxcore 8000
|119>
|120> %scf
|121>     ConvForced true
|122> end
|123>
|124> *xyz 0 1
|125> O   4.030566160   1.013739010   1.348232470
|126> H   3.521087820   1.813154810   1.126004480
|127> H   4.301309590   0.656627280   0.483926140
|128> *
|129>
|130>
|131> $new_job
|132>
|133> # 16h2o.yoo.etal.boat.b.1h2o.dset-orca.engrad-mp2.def2tzvp
|134> ! MP2 def2-TZVP EnGrad TightSCF FrozenCore
|135>
|136> %pal
|137>     nprocs 6
|138> end
|139>
|140> %maxcore 8000
|141>
|142> %scf
|143>     ConvForced true
|144> end
|145>
|146> *xyz 0 1
|147> O  -2.502998510  -1.692390920   2.126407180
|148> H  -1.601495380  -1.326166150   2.192177720
|149> H  -2.454503240  -2.330520070   1.395114260
|150> *
|151>
|152>
|153> $new_job
|154>
|155> # 16h2o.yoo.etal.boat.b.1h2o.dset-orca.engrad-mp2.def2tzvp
|156> ! MP2 def2-TZVP EnGrad TightSCF FrozenCore
|157>
|158> %pal
|159>     nprocs 6
|160> end
|161>
|162> %maxcore 8000
|163>
|164> %scf
|165>     ConvForced true
|166> end
|167>
|168> *xyz 0 1
|169> O   2.838146000  -2.263536120  -0.138730120
|170> H   1.899811180  -2.286791770  -0.402796420
|171> H   2.813410950  -2.051539230   0.809438010
|172> *
|173>
|174>
|175> $new_job
|176>
|177> # 16h2o.yoo.etal.boat.b.1h2o.dset-orca.engrad-mp2.def2tzvp
|178> ! MP2 def2-TZVP EnGrad TightSCF FrozenCore
|179>
|180> %pal
|181>     nprocs 6
|182> end
|183>
|184> %maxcore 8000
|185>
|186> %scf
|187>     ConvForced true
|188> end
|189>
|190> *xyz 0 1
|191> O  -2.414228350  -3.052942980  -0.415541590
|192> H  -2.729000630  -3.919664690  -0.687548060
|193> H  -3.034566120  -2.392689920  -0.822159190
|194> *
|195>
|196>
|197> $new_job
|198>
|199> # 16h2o.yoo.etal.boat.b.1h2o.dset-orca.engrad-mp2.def2tzvp
|200> ! MP2 def2-TZVP EnGrad TightSCF FrozenCore
|201>
|202> %pal
|203>     nprocs 6
|204> end
|205>
|206> %maxcore 8000
|207>
|208> %scf
|209>     ConvForced true
|210> end
|211>
|212> *xyz 0 1
|213> O   2.515723360   1.778954740  -2.000857960
|214> H   1.652429200   1.352191620  -2.149488420
|215> H   3.139528900   1.042384330  -1.868032090
|216> *
|217>
|218>
|219> $new_job
|220>
|221> # 16h2o.yoo.etal.boat.b.1h2o.dset-orca.engrad-mp2.def2tzvp
|222> ! MP2 def2-TZVP EnGrad TightSCF FrozenCore
|223>
|224> %pal
|225>     nprocs 6
|226> end
|227>
|228> %maxcore 8000
|229>
|230> %scf
|231>     ConvForced true
|232> end
|233>
|234> *xyz 0 1
|235> O   2.394165620   3.094502760   0.295580090
|236> H   2.635243310   4.021878780   0.214380780
|237> H   2.470452610   2.705308080  -0.617546500
|238> *
|239>
|240>
|241> $new_job
|242>
|243> # 16h2o.yoo.etal.boat.b.1h2o.dset-orca.engrad-mp2.def2tzvp
|244> ! MP2 def2-TZVP EnGrad TightSCF FrozenCore
|245>
|246> %pal
|247>     nprocs 6
|248> end
|249>
|250> %maxcore 8000
|251>
|252> %scf
|253>     ConvForced true
|254> end
|255>
|256> *xyz 0 1
|257> O  -0.118796780   1.863412090   0.558787180
|258> H  -0.042407130   1.457940650  -0.333750430
|259> H   0.657441220   2.450573430   0.618030400
|260> *
|261>
|262>
|263> $new_job
|264>
|265> # 16h2o.yoo.etal.boat.b.1h2o.dset-orca.engrad-mp2.def2tzvp
|266> ! MP2 def2-TZVP EnGrad TightSCF FrozenCore
|267>
|268> %pal
|269>     nprocs 6
|270> end
|271>
|272> %maxcore 8000
|273>
|274> %scf
|275>     ConvForced true
|276> end
|277>
|278> *xyz 0 1
|279> O  -2.856893130   2.235015450  -0.006053840
|280> H  -1.950109880   2.266134990   0.348554180
|281> H  -3.334753900   1.599732010   0.557436650
|282> *
|283>
|284>
|285> $new_job
|286>
|287> # 16h2o.yoo.etal.boat.b.1h2o.dset-orca.engrad-mp2.def2tzvp
|288> ! MP2 def2-TZVP EnGrad TightSCF FrozenCore
|289>
|290> %pal
|291>     nprocs 6
|292> end
|293>
|294> %maxcore 8000
|295>
|296> %scf
|297>     ConvForced true
|298> end
|299>
|300> *xyz 0 1
|301> O  -4.238936560   0.123091700   1.259056120
|302> H  -4.967739430   0.226879490   1.877485830
|303> H  -3.616055280  -0.530301490   1.674653570
|304> *
|305>
|306>
|307> $new_job
|308>
|309> # 16h2o.yoo.etal.boat.b.1h2o.dset-orca.engrad-mp2.def2tzvp
|310> ! MP2 def2-TZVP EnGrad TightSCF FrozenCore
|311>
|312> %pal
|313>     nprocs 6
|314> end
|315>
|316> %maxcore 8000
|317>
|318> %scf
|319>     ConvForced true
|320> end
|321>
|322> *xyz 0 1
|323> O   4.267375430  -0.273424570  -1.171620400
|324> H   3.752967870  -1.067260270  -0.868274570
|325> H   5.021742090  -0.616076610  -1.659299840
|326> *
|327>
|328>
|329> $new_job
|330>
|331> # 16h2o.yoo.etal.boat.b.1h2o.dset-orca.engrad-mp2.def2tzvp
|332> ! MP2 def2-TZVP EnGrad TightSCF FrozenCore
|333>
|334> %pal
|335>     nprocs 6
|336> end
|337>
|338> %maxcore 8000
|339>
|340> %scf
|341>     ConvForced true
|342> end
|343>
|344> *xyz 0 1
|345> O   0.090174750  -1.846110530  -0.580225690
|346> H  -0.702804930  -2.412943650  -0.634769220
|347> H   0.031662010  -1.434201840   0.310610750
|348> *
|349>
|350>                          ****END OF INPUT****
 Total Charge           Charge          ....    0
 Multiplicity           Mult            ....    1
 Number of Electrons    NEL             ....   10
MP2 TOTAL ENERGY:      -76.312464814 Eh
FINAL SINGLE POINT ENERGY       -76.312464814381
MP2 TOTAL ENERGY:      -76.312055567 Eh
FINAL SINGLE POINT ENERGY       -76.312055566865
MP2 TOTAL ENERGY:      -76.312825079 Eh
FINAL SINGLE POINT ENERGY       -76.312825078534
MP2 TOTAL ENERGY:      -76.311918577 Eh
FINAL SINGLE POINT ENERGY       -76.311918576720
MP2 TOTAL ENERGY:      -76.312439328 Eh
FINAL SINGLE POINT ENERGY       -76.312439328239
MP2 TOTAL ENERGY:      -76.312821708 Eh
FINAL SINGLE POINT ENERGY       -76.312821707806
FINAL SINGLE POINT ENERGY       -76.312815440640
FINAL SINGLE POINT ENERGY       -76.312822832347
FINAL SINGLE POINT ENERGY       -76.312088864352
FINAL SINGLE POINT ENERGY       -76.312774353179
MP2 TOTAL ENERGY:      -76.311936149 Eh
FINAL SINGLE POINT ENERGY       -76.311936149032
MP2 TOTAL ENERGY:      -76.312512557 Eh
FINAL SINGLE POINT ENERGY       -76.312512557121
MP2 TOTAL ENERGY:      -76.312748139 Eh
FINAL SINGLE POINT ENERGY       -76.312748138534
MP2 TOTAL ENERGY:      -76.312057653 Eh
FINAL SINGLE POINT ENERGY       -76.312057653282
MP2 TOTAL ENERGY:      -76.312084737 Eh
FINAL SINGLE POINT ENERGY       -76.312084736773

CARTESIAN COORDINATES (ANGSTROEM)
---------------------------------
  O      0.090175   -1.846111   -0.580226
  H     -0.702805   -2.412944   -0.634769
  H      0.031662   -1.434202    0.310611

 Multiplicity           Mult            ....    1
 Number of Electrons    NEL             ....   10
 Basis Dimension        Dim             ....   43

ORBITAL ENERGIES
----------------

  NO   OCC          E(Eh)            E(eV)
   0   2.0000     -20.563930      -559.5730
   1   2.0000      -1.338640       -36.4262
   2   2.0000      -0.702108       -19.1053
   3   2.0000      -0.577606       -15.7175
   4   2.0000      -0.506371       -13.7790
   5   0.0000       0.125248         3.4082
   6   0.0000       0.195354         5.3158
   7   0.0000       0.517339        14.0775
   8   0.0000       0.564447        15.3594
   9   0.0000       0.597759        16.2658

MULLIKEN ATOMIC CHARGES
-----------------------
   0 O :   -0.675595
   1 H :    0.337457
   2 H :    0.338138
Sum of atomic charges:   -0.0000000

LOEWDIN ATOMIC CHARGES
----------------------
   0 O :   -0.339221
   1 H :    0.167257
   2 H :    0.171964

  Mayer bond orders larger than 0.100000
B(  0-O ,  1-H ) :   0.8522 B(  0-O ,  2-H ) :   0.8508

MP2 TOTAL ENERGY:      -76.312485656 Eh
FINAL SINGLE POINT ENERGY       -76.312485656358

DIPOLE MOMENT
-------------
                                X             Y             Z
Electronic contribution:      0.11538       0.02001      -0.11527
Nuclear contribution   :     -0.70875      -0.12895       0.69610
                        -----------------------------------------
Total Dipole Moment    :     -0.59337      -0.10895       0.58083
                        -----------------------------------------
Magnitude (a.u.)       :      0.83745
Magnitude (Debye)      :      2.12862

Rotational constants in cm-1:    26.005271    13.987430     9.095332
Rotational constants in MHz : 779618.403839 419332.613717 272671.208579

                             ****ORCA TERMINATED NORMALLY****
TOTAL RUN TIME: 0 days 0 hours 3 minutes 8 seconds 85 msec
