                         Program Version 4.2.0 -  RELEASE  -
|  1> # 6h2o.temelso.etal.dset.3h2o-orca.engrad-mp2.augccpvtz-100.to.149
|  2> ! MP2 aug-cc-pVTZ EnGrad TightSCF FrozenCore
|  3>
|  4> %pal
|  5>     nprocs 12
|  6> end
|  7>
|  8> %maxcore 8000
|  9>
| 10> %scf
| 11>     ConvForced true
| 12> end
| 13>
| 14> *xyz 0 1
| 15> O  -1.010328323   1.307759906   0.382478456
| 16> H  -0.128728323   1.271759906  -0.082021544
| 17> H  -1.278728323   2.233659906   0.333878456
| 18> O  -0.381728323  -2.424440094   0.453278456
| 19> H  -0.300628323  -1.903040094   1.274778456
| 20> H  -1.189328323  -2.056140094   0.044878456
| 21> O   1.347971677   1.057959906  -0.848221544
| 22> H   2.128671677   1.293159906  -0.330921544
| 23> H   1.468571677   0.092759906  -1.042721544
| 24> *
| 25>
| 26>
| 27> $new_job
| 28>
| 29> # 6h2o.temelso.etal.dset.3h2o-orca.engrad-mp2.augccpvtz-100.to.149
| 30> ! MP2 aug-cc-pVTZ EnGrad TightSCF FrozenCore
| 31>
| 32> %pal
| 33>     nprocs 12
| 34> end
| 35>
| 36> %maxcore 8000
| 37>
| 38> %scf
| 39>     ConvForced true
| 40> end
| 41>
| 42> *xyz 0 1
| 43> O  -1.066425233   2.195467410   0.502631868
| 44> H  -0.184825233   2.159467410   0.038131868
| 45> H  -1.334825233   3.121367410   0.454031868
| 46> O  -0.437825233  -1.536732590   0.573431868
| 47> H  -0.356725233  -1.015332590   1.394931868
| 48> H  -1.245425233  -1.168432590   0.165031868
| 49> O   1.555574767  -0.711832590  -1.055168132
| 50> H   1.460474767  -1.156532590  -1.905868132
| 51> H   0.846574767  -1.097632590  -0.477968132
| 52> *
| 53>
| 54>
| 55> $new_job
| 56>
| 57> # 6h2o.temelso.etal.dset.3h2o-orca.engrad-mp2.augccpvtz-100.to.149
| 58> ! MP2 aug-cc-pVTZ EnGrad TightSCF FrozenCore
| 59>
| 60> %pal
| 61>     nprocs 12
| 62> end
| 63>
| 64> %maxcore 8000
| 65>
| 66> %scf
| 67>     ConvForced true
| 68> end
| 69>
| 70> *xyz 0 1
| 71> O  -0.445328242   1.771394670  -0.728960213
| 72> H   0.436271758   1.735394670  -1.193460213
| 73> H  -0.713728242   2.697294670  -0.777560213
| 74> O   0.183271758  -1.960805330  -0.658160213
| 75> H   0.264371758  -1.439405330   0.163339787
| 76> H  -0.624328242  -1.592505330  -1.066560213
| 77> O   0.316071758   0.046794670   1.377939787
| 78> H  -0.182328242   0.097994670   2.202339787
| 79> H  -0.037728242   0.765194670   0.817639787
| 80> *
| 81>
| 82>
| 83> $new_job
| 84>
| 85> # 6h2o.temelso.etal.dset.3h2o-orca.engrad-mp2.augccpvtz-100.to.149
| 86> ! MP2 aug-cc-pVTZ EnGrad TightSCF FrozenCore
| 87>
| 88> %pal
| 89>     nprocs 12
| 90> end
| 91>
| 92> %maxcore 8000
| 93>
| 94> %scf
| 95>     ConvForced true
| 96> end
| 97>
| 98> *xyz 0 1
| 99> O   0.276909642   1.920146841   0.342118925
|100> H   1.158509642   1.884146841  -0.122381075
|101> H   0.008509642   2.846046841   0.293518925
|102> O   0.905509642  -1.812053159   0.412918925
|103> H   0.986609642  -1.290653159   1.234418925
|104> H   0.097909642  -1.443753159   0.004518925
|105> O  -1.142390358  -0.256153159  -0.778781075
|106> H  -0.797390358   0.593046841  -0.436281075
|107> H  -2.089590358  -0.238453159  -0.596881075
|108> *
|109>
|110>
|111> $new_job
|112>
|113> # 6h2o.temelso.etal.dset.3h2o-orca.engrad-mp2.augccpvtz-100.to.149
|114> ! MP2 aug-cc-pVTZ EnGrad TightSCF FrozenCore
|115>
|116> %pal
|117>     nprocs 12
|118> end
|119>
|120> %maxcore 8000
|121>
|122> %scf
|123>     ConvForced true
|124> end
|125>
|126> *xyz 0 1
|127> O  -1.673347869   1.064872326   0.938149157
|128> H  -0.791747869   1.028872326   0.473649157
|129> H  -1.941747869   1.990772326   0.889549157
|130> O   0.684952131   0.815072326  -0.292550843
|131> H   1.465652131   1.050272326   0.224749157
|132> H   0.805552131  -0.150127674  -0.487050843
|133> O   0.948652131  -1.842427674  -0.619650843
|134> H   0.853552131  -2.287127674  -1.470350843
|135> H   0.239652131  -2.228227674  -0.042450843
|136> *
|137>
|138>
|139> $new_job
|140>
|141> # 6h2o.temelso.etal.dset.3h2o-orca.engrad-mp2.augccpvtz-100.to.149
|142> ! MP2 aug-cc-pVTZ EnGrad TightSCF FrozenCore
|143>
|144> %pal
|145>     nprocs 12
|146> end
|147>
|148> %maxcore 8000
|149>
|150> %scf
|151>     ConvForced true
|152> end
|153>
|154> *xyz 0 1
|155> O  -1.052250878   0.640799586  -0.293442923
|156> H  -0.170650878   0.604799586  -0.757942923
|157> H  -1.320650878   1.566699586  -0.342042923
|158> O   1.306049122   0.390999586  -1.524142923
|159> H   2.086749122   0.626199586  -1.006842923
|160> H   1.426649122  -0.574200414  -1.718642923
|161> O  -0.290850878  -1.083800414   1.813457077
|162> H  -0.789250878  -1.032600414   2.637857077
|163> H  -0.644650878  -0.365400414   1.253157077
|164> *
|165>
|166>
|167> $new_job
|168>
|169> # 6h2o.temelso.etal.dset.3h2o-orca.engrad-mp2.augccpvtz-100.to.149
|170> ! MP2 aug-cc-pVTZ EnGrad TightSCF FrozenCore
|171>
|172> %pal
|173>     nprocs 12
|174> end
|175>
|176> %maxcore 8000
|177>
|178> %scf
|179>     ConvForced true
|180> end
|181>
|182> *xyz 0 1
|183> O  -0.330012993   0.789551757   0.777636215
|184> H   0.551587007   0.753551757   0.313136215
|185> H  -0.598412993   1.715451757   0.729036215
|186> O   2.028287007   0.539751757  -0.453063785
|187> H   2.808987007   0.774951757   0.064236215
|188> H   2.148887007  -0.425448243  -0.647563785
|189> O  -1.749312993  -1.386748243  -0.343263785
|190> H  -1.404312993  -0.537548243  -0.000763785
|191> H  -2.696512993  -1.369048243  -0.161363785
|192> *
|193>
|194>
|195> $new_job
|196>
|197> # 6h2o.temelso.etal.dset.3h2o-orca.engrad-mp2.augccpvtz-100.to.149
|198> ! MP2 aug-cc-pVTZ EnGrad TightSCF FrozenCore
|199>
|200> %pal
|201>     nprocs 12
|202> end
|203>
|204> %maxcore 8000
|205>
|206> %scf
|207>     ConvForced true
|208> end
|209>
|210> *xyz 0 1
|211> O  -1.108347787   1.528507090  -0.173289511
|212> H  -0.226747787   1.492507090  -0.637789511
|213> H  -1.376747787   2.454407090  -0.221889511
|214> O   1.513652213  -1.378792910  -1.731089511
|215> H   1.418552213  -1.823492910  -2.581789511
|216> H   0.804652213  -1.764592910  -1.153889511
|217> O  -0.346947787  -0.196092910   1.933610489
|218> H  -0.845347787  -0.144892910   2.758010489
|219> H  -0.700747787   0.522307090   1.373310489
|220> *
|221>
|222>
|223> $new_job
|224>
|225> # 6h2o.temelso.etal.dset.3h2o-orca.engrad-mp2.augccpvtz-100.to.149
|226> ! MP2 aug-cc-pVTZ EnGrad TightSCF FrozenCore
|227>
|228> %pal
|229>     nprocs 12
|230> end
|231>
|232> %maxcore 8000
|233>
|234> %scf
|235>     ConvForced true
|236> end
|237>
|238> *xyz 0 1
|239> O  -0.386109903   1.677259261   0.897789627
|240> H   0.495490097   1.641259261   0.433289627
|241> H  -0.654509903   2.603159261   0.849189627
|242> O   2.235890097  -1.230040739  -0.660010373
|243> H   2.140790097  -1.674740739  -1.510710373
|244> H   1.526890097  -1.615840739  -0.082810373
|245> O  -1.805409903  -0.499040739  -0.223110373
|246> H  -1.460409903   0.350159261   0.119389627
|247> H  -2.752609903  -0.481340739  -0.041210373
|248> *
|249>
|250>
|251> $new_job
|252>
|253> # 6h2o.temelso.etal.dset.3h2o-orca.engrad-mp2.augccpvtz-100.to.149
|254> ! MP2 aug-cc-pVTZ EnGrad TightSCF FrozenCore
|255>
|256> %pal
|257>     nprocs 12
|258> end
|259>
|260> %maxcore 8000
|261>
|262> %scf
|263>     ConvForced true
|264> end
|265>
|266> *xyz 0 1
|267> O   0.234987088   1.253186521  -0.333802454
|268> H   1.116587088   1.217186521  -0.798302454
|269> H  -0.033412912   2.179086521  -0.382402454
|270> O   0.996387088  -0.471413479   1.773097546
|271> H   0.497987088  -0.420213479   2.597497546
|272> H   0.642587088   0.246986521   1.212797546
|273> O  -1.184312912  -0.923113479  -1.454702454
|274> H  -0.839312912  -0.073913479  -1.112202454
|275> H  -2.131512912  -0.905413479  -1.272802454
|276> *
|277>
|278>
|279> $new_job
|280>
|281> # 6h2o.temelso.etal.dset.3h2o-orca.engrad-mp2.augccpvtz-100.to.149
|282> ! MP2 aug-cc-pVTZ EnGrad TightSCF FrozenCore
|283>
|284> %pal
|285>     nprocs 12
|286> end
|287>
|288> %maxcore 8000
|289>
|290> %scf
|291>     ConvForced true
|292> end
|293>
|294> *xyz 0 1
|295> O  -1.229297855  -1.423257277   0.968076950
|296> H  -1.148197855  -0.901857277   1.789576950
|297> H  -2.036897855  -1.054957277   0.559676950
|298> O   0.500402145   2.059142723  -0.333423050
|299> H   1.281102145   2.294342723   0.183876950
|300> H   0.621002145   1.093942723  -0.527923050
|301> O   0.764102145  -0.598357277  -0.660523050
|302> H   0.669002145  -1.043057277  -1.511223050
|303> H   0.055102145  -0.984157277  -0.083323050
|304> *
|305>
|306>
|307> $new_job
|308>
|309> # 6h2o.temelso.etal.dset.3h2o-orca.engrad-mp2.augccpvtz-100.to.149
|310> ! MP2 aug-cc-pVTZ EnGrad TightSCF FrozenCore
|311>
|312> %pal
|313>     nprocs 12
|314> end
|315>
|316> %maxcore 8000
|317>
|318> %scf
|319>     ConvForced true
|320> end
|321>
|322> *xyz 0 1
|323> O  -0.608200864  -1.847330017  -0.263515130
|324> H  -0.527100864  -1.325930017   0.557984870
|325> H  -1.415800864  -1.479030017  -0.671915130
|326> O   1.121499136   1.635069983  -1.565015130
|327> H   1.902199136   1.870269983  -1.047715130
|328> H   1.242099136   0.669869983  -1.759515130
|329> O  -0.475400864   0.160269983   1.772584870
|330> H  -0.973800864   0.211469983   2.596984870
|331> H  -0.829200864   0.878669983   1.212284870
|332> *
|333>
|334>
|335> $new_job
|336>
|337> # 6h2o.temelso.etal.dset.3h2o-orca.engrad-mp2.augccpvtz-100.to.149
|338> ! MP2 aug-cc-pVTZ EnGrad TightSCF FrozenCore
|339>
|340> %pal
|341>     nprocs 12
|342> end
|343>
|344> %maxcore 8000
|345>
|346> %scf
|347>     ConvForced true
|348> end
|349>
|350> *xyz 0 1
|351> O   0.114037020  -1.698577846   0.807564008
|352> H   0.195137020  -1.177177846   1.629064008
|353> H  -0.693562980  -1.330277846   0.399164008
|354> O   1.843737020   1.783822154  -0.493935992
|355> H   2.624437020   2.019022154   0.023364008
|356> H   1.964337020   0.818622154  -0.688435992
|357> O  -1.933862980  -0.142677846  -0.384135992
|358> H  -1.588862980   0.706522154  -0.041635992
|359> H  -2.881062980  -0.124977846  -0.202235992
|360> *
|361>
|362>
|363> $new_job
|364>
|365> # 6h2o.temelso.etal.dset.3h2o-orca.engrad-mp2.augccpvtz-100.to.149
|366> ! MP2 aug-cc-pVTZ EnGrad TightSCF FrozenCore
|367>
|368> %pal
|369>     nprocs 12
|370> end
|371>
|372> %maxcore 8000
|373>
|374> %scf
|375>     ConvForced true
|376> end
|377>
|378> *xyz 0 1
|379> O  -0.664297774  -0.959622513  -0.143361718
|380> H  -0.583197774  -0.438222513   0.678138282
|381> H  -1.471897774  -0.591322513  -0.551761718
|382> O   1.329102226  -0.134722513  -1.771961718
|383> H   1.234002226  -0.579422513  -2.622661718
|384> H   0.620102226  -0.520522513  -1.194761718
|385> O  -0.531497774   1.047977487   1.892738282
|386> H  -1.029897774   1.099177487   2.717138282
|387> H  -0.885297774   1.766377487   1.332438282
|388> *
|389>
|390>
|391> $new_job
|392>
|393> # 6h2o.temelso.etal.dset.3h2o-orca.engrad-mp2.augccpvtz-100.to.149
|394> ! MP2 aug-cc-pVTZ EnGrad TightSCF FrozenCore
|395>
|396> %pal
|397>     nprocs 12
|398> end
|399>
|400> %maxcore 8000
|999> H  -0.275141472   2.437432605  -1.056860423
|1000> H  -0.865941472   1.181132605  -0.370860423
|1001> O  -2.343141472   0.315432605  -0.073760423
|1002> H  -2.271541472  -0.665967395  -0.141560423
|1003> H  -2.787741472   0.467932605   0.768839577
|1004> *
|1005>
|1006>
|1007> $new_job
|1008>
|1009> # 6h2o.temelso.etal.dset.3h2o-orca.engrad-mp2.augccpvtz-100.to.149
|1010> ! MP2 aug-cc-pVTZ EnGrad TightSCF FrozenCore
|1011>
|1012> %pal
|1013>     nprocs 12
|1014> end
|1015>
|1016> %maxcore 8000
|1017>
|1018> %scf
|1019>     ConvForced true
|1020> end
|1021>
|1022> *xyz 0 1
|1023> O   2.211334519   0.359247589  -0.397339365
|1024> H   1.402034519   0.908347589  -0.274439365
|1025> H   2.264634519   0.199147589  -1.346939365
|1026> O  -2.134765481  -2.205352411   0.390560635
|1027> H  -2.182765481  -2.590452411  -0.492439365
|1028> H  -1.323765481  -2.592752411   0.795060635
|1029> O  -0.015465481   1.850647589   0.098260635
|1030> H  -0.269665481   2.629947589  -0.409739365
|1031> H  -0.860465481   1.373647589   0.276260635
|1032> *
|1033>
|1034>
|1035> $new_job
|1036>
|1037> # 6h2o.temelso.etal.dset.3h2o-orca.engrad-mp2.augccpvtz-100.to.149
|1038> ! MP2 aug-cc-pVTZ EnGrad TightSCF FrozenCore
|1039>
|1040> %pal
|1041>     nprocs 12
|1042> end
|1043>
|1044> %maxcore 8000
|1045>
|1046> %scf
|1047>     ConvForced true
|1048> end
|1049>
|1050> *xyz 0 1
|1051> O   2.971858671   0.827909397  -0.576308855
|1052> H   2.162558671   1.377009397  -0.453408855
|1053> H   3.025158671   0.667809397  -1.525908855
|1054> O  -1.374241329  -1.736690603   0.211591145
|1055> H  -1.422241329  -2.121790603  -0.671408855
|1056> H  -0.563241329  -2.124090603   0.616091145
|1057> O  -1.577141329   0.976609397   0.394391145
|1058> H  -1.505541329  -0.004790603   0.326591145
|1059> H  -2.021741329   1.129109397   1.236991145
|1060> *
|1061>
|1062>
|1063> $new_job
|1064>
|1065> # 6h2o.temelso.etal.dset.3h2o-orca.engrad-mp2.augccpvtz-100.to.149
|1066> ! MP2 aug-cc-pVTZ EnGrad TightSCF FrozenCore
|1067>
|1068> %pal
|1069>     nprocs 12
|1070> end
|1071>
|1072> %maxcore 8000
|1073>
|1074> %scf
|1075>     ConvForced true
|1076> end
|1077>
|1078> *xyz 0 1
|1079> O   2.300152507  -0.544133971  -0.481644818
|1080> H   1.490852507   0.004966029  -0.358744818
|1081> H   2.353452507  -0.704233971  -1.431244818
|1082> O   0.073352507   0.947266029   0.013955182
|1083> H  -0.180847493   1.726566029  -0.494044818
|1084> H  -0.771647493   0.470266029   0.191955182
|1085> O  -2.248847493  -0.395433971   0.489055182
|1086> H  -2.177247493  -1.376833971   0.421255182
|1087> H  -2.693447493  -0.242933971   1.331655182
|1088> *
|1089>
|1090>
|1091> $new_job
|1092>
|1093> # 6h2o.temelso.etal.dset.3h2o-orca.engrad-mp2.augccpvtz-100.to.149
|1094> ! MP2 aug-cc-pVTZ EnGrad TightSCF FrozenCore
|1095>
|1096> %pal
|1097>     nprocs 12
|1098> end
|1099>
|1100> %maxcore 8000
|1101>
|1102> %scf
|1103>     ConvForced true
|1104> end
|1105>
|1106> *xyz 0 1
|1107> O  -0.625574509  -2.232207114   0.037128453
|1108> H  -0.673574509  -2.617307114  -0.845871547
|1109> H   0.185425491  -2.619607114   0.441628453
|1110> O   1.493725491   1.823792886  -0.255171547
|1111> H   1.239525491   2.603092886  -0.763171547
|1112> H   0.648725491   1.346792886  -0.077171547
|1113> O  -0.828474509   0.481092886   0.219928453
|1114> H  -0.756874509  -0.500307114   0.152128453
|1115> H  -1.273074509   0.633592886   1.062528453
|1116> *
|1117>
|1118>
|1119> $new_job
|1120>
|1121> # 6h2o.temelso.etal.dset.3h2o-orca.engrad-mp2.augccpvtz-100.to.149
|1122> ! MP2 aug-cc-pVTZ EnGrad TightSCF FrozenCore
|1123>
|1124> %pal
|1125>     nprocs 12
|1126> end
|1127>
|1128> %maxcore 8000
|1129>
|1130> %scf
|1131>     ConvForced true
|1132> end
|1133>
|1134> *xyz 0 1
|1135> O  -0.722263957   2.183314152   0.719735213
|1136> H  -0.836463957   2.324914152   1.667435213
|1137> H  -0.743663957   1.204614152   0.608435213
|1138> O  -0.674963957  -0.522885848   0.397735213
|1139> H   0.040136043  -0.906885848  -0.161564787
|1140> H  -1.443663957  -1.085085848   0.248135213
|1141> O   1.356936043  -1.580985848  -1.086364787
|1142> H   2.253736043  -1.277885848  -0.807264787
|1143> H   1.369536043  -1.520785848  -2.048964787
|1144> *
|1145>
|1146>
|1147> $new_job
|1148>
|1149> # 6h2o.temelso.etal.dset.3h2o-orca.engrad-mp2.augccpvtz-100.to.149
|1150> ! MP2 aug-cc-pVTZ EnGrad TightSCF FrozenCore
|1151>
|1152> %pal
|1153>     nprocs 12
|1154> end
|1155>
|1156> %maxcore 8000
|1157>
|1158> %scf
|1159>     ConvForced true
|1160> end
|1161>
|1162> *xyz 0 1
|1163> O  -0.734659583   0.556674296   0.472833505
|1164> H  -0.848859583   0.698274296   1.420533505
|1165> H  -0.756059583  -0.422025704   0.361533505
|1166> O  -0.687359583  -2.149525704   0.150833505
|1167> H   0.027740417  -2.533525704  -0.408466495
|1168> H  -1.456059583  -2.711725704   0.001233505
|1169> O   1.492040417   1.702174296  -0.602066495
|1170> H   1.240440417   1.940474296  -1.502266495
|1171> H   0.681240417   1.293074296  -0.215466495
|1172> *
|1173>
|1174>
|1175> $new_job
|1176>
|1177> # 6h2o.temelso.etal.dset.3h2o-orca.engrad-mp2.augccpvtz-100.to.149
|1178> ! MP2 aug-cc-pVTZ EnGrad TightSCF FrozenCore
|1179>
|1180> %pal
|1181>     nprocs 12
|1182> end
|1183>
|1184> %maxcore 8000
|1185>
|1186> %scf
|1187>     ConvForced true
|1188> end
|1189>
|1190> *xyz 0 1
|1191> O  -1.537445307   1.891024557   0.438407431
|1192> H  -1.651645307   2.032624557   1.386107431
|1193> H  -1.558845307   0.912324557   0.327107431
|1194> O  -1.490145307  -0.815175443   0.116407431
|1195> H  -0.775045307  -1.199175443  -0.442892569
|1196> H  -2.258845307  -1.377375443  -0.033192569
|1197> O   3.016854693  -1.007075443  -0.616992569
|1198> H   3.374154693  -1.419975443   0.178607431
|1199> H   3.040654693  -0.040175443  -0.428692569
|1200> *
|1201>
|1202>
|1203> $new_job
|1204>
|1205> # 6h2o.temelso.etal.dset.3h2o-orca.engrad-mp2.augccpvtz-100.to.149
|1206> ! MP2 aug-cc-pVTZ EnGrad TightSCF FrozenCore
|1207>
|1208> %pal
|1209>     nprocs 12
|1210> end
|1211>
|1212> %maxcore 8000
|1213>
|1214> %scf
|1215>     ConvForced true
|1216> end
|1217>
|1218> *xyz 0 1
|1219> O  -1.517278664   0.989703561   0.284926690
|1220> H  -1.631478664   1.131303561   1.232626690
|1221> H  -1.538678664   0.011003561   0.173626690
|1222> O  -1.469978664  -1.716496439  -0.037073310
|1223> H  -0.754878664  -2.100496439  -0.596373310
|1224> H  -2.238678664  -2.278696439  -0.186673310
|1225> O   3.002821336   0.764203561  -0.233173310
|1226> H   2.186121336   1.268303561  -0.458173310
|1227> H   3.730521336   1.374703561  -0.398073310
|1228> *
|1229>
|1230>
|1231> $new_job
|1232>
|1233> # 6h2o.temelso.etal.dset.3h2o-orca.engrad-mp2.augccpvtz-100.to.149
|1234> ! MP2 aug-cc-pVTZ EnGrad TightSCF FrozenCore
|1235>
|1236> %pal
|1237>     nprocs 12
|1238> end
|1239>
|1240> %maxcore 8000
|1241>
|1242> %scf
|1243>     ConvForced true
|1244> end
|1245>
|1246> *xyz 0 1
|1247> O  -1.429918053   0.884954133   0.967059834
|1248> H  -1.544118053   1.026554133   1.914759834
|1249> H  -1.451318053  -0.093745867   0.855759834
|1250> O   0.649281947  -2.879345867  -0.839040166
|1251> H   1.546081947  -2.576245867  -0.559940166
|1252> H   0.661881947  -2.819145867  -1.801640166
|1253> O   0.796781947   2.030454133  -0.107840166
|1254> H   0.545181947   2.268754133  -1.008040166
|1255> H  -0.014018053   1.621354133   0.278759834
|1256> *
|1257>
|1258>
|1259> $new_job
|1260>
|1261> # 6h2o.temelso.etal.dset.3h2o-orca.engrad-mp2.augccpvtz-100.to.149
|1262> ! MP2 aug-cc-pVTZ EnGrad TightSCF FrozenCore
|1263>
|1264> %pal
|1265>     nprocs 12
|1266> end
|1267>
|1268> %maxcore 8000
|1269>
|1270> %scf
|1271>     ConvForced true
|1272> end
|1273>
|1274> *xyz 0 1
|1275> O  -2.232703777   2.219304393   0.932633760
|1276> H  -2.346903777   2.360904393   1.880333760
|1277> H  -2.254103777   1.240604393   0.821333760
|1278> O  -0.153503777  -1.544995607  -0.873466240
|1279> H   0.743296223  -1.241895607  -0.594366240
|1280> H  -0.140903777  -1.484795607  -1.836066240
|1281> O   2.321596223  -0.678795607  -0.122766240
|1282> H   2.678896223  -1.091695607   0.672833760
|1283> H   2.345396223   0.288104393   0.065533760
|1284> *
|1285>
|1286>
|1287> $new_job
|1288>
|1289> # 6h2o.temelso.etal.dset.3h2o-orca.engrad-mp2.augccpvtz-100.to.149
|1290> ! MP2 aug-cc-pVTZ EnGrad TightSCF FrozenCore
|1291>
|1292> %pal
|1293>     nprocs 12
|1294> end
|1295>
|1296> %maxcore 8000
|1297>
|1298> %scf
|1299>     ConvForced true
|1300> end
|1301>
|1302> *xyz 0 1
|1303> O  -2.212537135   1.317983398   0.779153019
|1304> H  -2.326737135   1.459583398   1.726853019
|1305> H  -2.233937135   0.339283398   0.667853019
|1306> O  -0.133337135  -2.446316602  -1.026946981
|1307> H   0.763462865  -2.143216602  -0.747846981
|1308> H  -0.120737135  -2.386116602  -1.989546981
|1309> O   2.307562865   1.092483398   0.261053019
|1310> H   1.490862865   1.596583398   0.036053019
|1311> H   3.035262865   1.702983398   0.096153019
|1312> *
|1313>
|1314>
|1315> $new_job
|1316>
|1317> # 6h2o.temelso.etal.dset.3h2o-orca.engrad-mp2.augccpvtz-100.to.149
|1318> ! MP2 aug-cc-pVTZ EnGrad TightSCF FrozenCore
|1319>
|1320> %pal
|1321>     nprocs 12
|1322> end
|1323>
|1324> %maxcore 8000
|1325>
|1326> %scf
|1327>     ConvForced true
|1328> end
|1329>
|1330> *xyz 0 1
|1331> O  -2.245099403   0.592664538   0.685732052
|1332> H  -2.359299403   0.734264538   1.633432052
|1333> H  -2.266499403  -0.386035462   0.574432052
|1334> O  -0.018399403   1.738164538  -0.389167948
|1335> H  -0.269999403   1.976464538  -1.289367948
|1336> H  -0.829199403   1.329064538  -0.002567948
|1337> O   2.309200597  -2.305435462  -0.369667948
|1338> H   2.666500597  -2.718335462   0.425932052
|1339> H   2.333000597  -1.338535462  -0.181367948
|1340> *
|1341>
|1342>
|1343> $new_job
|1344>
|1345> # 6h2o.temelso.etal.dset.3h2o-orca.engrad-mp2.augccpvtz-100.to.149
|1346> ! MP2 aug-cc-pVTZ EnGrad TightSCF FrozenCore
|1347>
|1348> %pal
|1349>     nprocs 12
|1350> end
|1351>
|1352> %maxcore 8000
|1353>
|1354> %scf
|1355>     ConvForced true
|1356> end
|1357>
|1358> *xyz 0 1
|1359> O  -2.224932760  -0.308656458   0.532251312
|1360> H  -2.339132760  -0.167056458   1.479951312
|1361> H  -2.246332760  -1.287356458   0.420951312
|1362> O   0.001767240   0.836843542  -0.542648688
|1363> H  -0.249832760   1.075143542  -1.442848688
|1364> H  -0.809032760   0.427743542  -0.156048688
|1365> O   2.295167240  -0.534156458   0.014151312
|1366> H   1.478467240  -0.030056458  -0.210848688
|1367> H   3.022867240   0.076343542  -0.150748688
|1368> *
|1369>
|1370>
|1371> $new_job
|1372>
|1373> # 6h2o.temelso.etal.dset.3h2o-orca.engrad-mp2.augccpvtz-100.to.149
|1374> ! MP2 aug-cc-pVTZ EnGrad TightSCF FrozenCore
|1375>
|1376> %pal
|1377>     nprocs 12
|1378> end
|1379>
|1380> %maxcore 8000
|1381>
|1382> %scf
|1383>     ConvForced true
|1384> end
|1385>
|1386> *xyz 0 1
|1387> O  -3.027718485   1.025693802   0.497825237
|1388> H  -3.141918485   1.167293802   1.445525237
|1389> H  -3.049118485   0.046993802   0.386525237
|1390> O   1.526581515  -1.872406198  -0.557574763
|1391> H   1.883881515  -2.285306198   0.238025237
|1392> H   1.550381515  -0.905506198  -0.369274763
|1393> O   1.492381515   0.800193802  -0.020274763
|1394> H   0.675681515   1.304293802  -0.245274763
|1395> H   2.220081515   1.410693802  -0.185174763
|1396> *
|1397>
|1398>                          ****END OF INPUT****
 Total Charge           Charge          ....    0
 Multiplicity           Mult            ....    1
 Number of Electrons    NEL             ....   30
MP2 TOTAL ENERGY:     -228.997125862 Eh
FINAL SINGLE POINT ENERGY      -228.997125861997
MP2 TOTAL ENERGY:     -228.996981088 Eh
FINAL SINGLE POINT ENERGY      -228.996981087994
MP2 TOTAL ENERGY:     -229.002510709 Eh
FINAL SINGLE POINT ENERGY      -229.002510709388
MP2 TOTAL ENERGY:     -229.002571252 Eh
FINAL SINGLE POINT ENERGY      -229.002571252008
MP2 TOTAL ENERGY:     -229.003018060 Eh
FINAL SINGLE POINT ENERGY      -229.003018060327
MP2 TOTAL ENERGY:     -229.003429492 Eh
FINAL SINGLE POINT ENERGY      -229.003429492204
FINAL SINGLE POINT ENERGY      -229.002885852855
FINAL SINGLE POINT ENERGY      -228.995431365914
FINAL SINGLE POINT ENERGY      -228.996374965543
FINAL SINGLE POINT ENERGY      -228.997017761638
FINAL SINGLE POINT ENERGY      -229.003620705086
FINAL SINGLE POINT ENERGY      -229.003727255870
FINAL SINGLE POINT ENERGY      -228.994972469833
FINAL SINGLE POINT ENERGY      -228.995042925355
MP2 TOTAL ENERGY:     -228.995137535 Eh
FINAL SINGLE POINT ENERGY      -228.995137534743
MP2 TOTAL ENERGY:     -228.994818757 Eh
FINAL SINGLE POINT ENERGY      -228.994818756626
MP2 TOTAL ENERGY:     -228.989823744 Eh
FINAL SINGLE POINT ENERGY      -228.989823743555
MP2 TOTAL ENERGY:     -228.994824397 Eh
FINAL SINGLE POINT ENERGY      -228.994824396950
MP2 TOTAL ENERGY:     -229.003904305 Eh
FINAL SINGLE POINT ENERGY      -229.003904304972

CARTESIAN COORDINATES (ANGSTROEM)
---------------------------------
  O     -3.027718    1.025694    0.497825
  H     -3.141918    1.167294    1.445525
  H     -3.049118    0.046994    0.386525
  O      1.526582   -1.872406   -0.557575
  H      1.883882   -2.285306    0.238025
  H      1.550382   -0.905506   -0.369275
  O      1.492382    0.800194   -0.020275
  H      0.675682    1.304294   -0.245275
  H      2.220082    1.410694   -0.185175

 Multiplicity           Mult            ....    1
 Number of Electrons    NEL             ....   30
 Basis Dimension        Dim             ....  276

ORBITAL ENERGIES
----------------

  NO   OCC          E(Eh)            E(eV)
   0   2.0000     -20.595933      -560.4438
   1   2.0000     -20.574754      -559.8675
   2   2.0000     -20.524593      -558.5026
   3   2.0000      -1.375886       -37.4398
   4   2.0000      -1.349141       -36.7120
   5   2.0000      -1.304265       -35.4908
   6   2.0000      -0.737679       -20.0733
   7   2.0000      -0.713064       -19.4034
   8   2.0000      -0.690234       -18.7822
   9   2.0000      -0.610595       -16.6151
  10   2.0000      -0.586255       -15.9528
  11   2.0000      -0.545350       -14.8397
  12   2.0000      -0.526727       -14.3330
  13   2.0000      -0.513833       -13.9821
  14   2.0000      -0.468597       -12.7512
  15   0.0000       0.021503         0.5851
  16   0.0000       0.034403         0.9362
  17   0.0000       0.046337         1.2609
  18   0.0000       0.053391         1.4529
  19   0.0000       0.062175         1.6919

MULLIKEN ATOMIC CHARGES
-----------------------
   0 O :   -0.459705
   1 H :    0.220225
   2 H :    0.240373
   3 O :   -0.511392
   4 H :    0.194549
   5 H :    0.264032
   6 O :   -0.397604
   7 H :    0.240380
   8 H :    0.209141
Sum of atomic charges:    0.0000000

LOEWDIN ATOMIC CHARGES
----------------------
   0 O :    0.997947
   1 H :   -0.519249
   2 H :   -0.476072
   3 O :    1.016982
   4 H :   -0.515910
   5 H :   -0.736154
   6 O :    1.093488
   7 H :   -0.408008
   8 H :   -0.453024

  Mayer bond orders larger than 0.100000
B(  0-O ,  1-H ) :   0.9523 B(  0-O ,  2-H ) :   0.9333 B(  3-O ,  4-H ) :   0.9761
B(  3-O ,  5-H ) :   0.8745 B(  6-O ,  7-H ) :   0.9377 B(  6-O ,  8-H ) :   0.9700

MP2 TOTAL ENERGY:     -228.994992911 Eh
FINAL SINGLE POINT ENERGY      -228.994992910938

DIPOLE MOMENT
-------------
                                X             Y             Z
Electronic contribution:     -0.07713       0.14713      -0.27583
Nuclear contribution   :      0.13026       0.69211       1.19061
                        -----------------------------------------
Total Dipole Moment    :      0.05314       0.83924       0.91477
                        -----------------------------------------
Magnitude (a.u.)       :      1.24256
Magnitude (Debye)      :      3.15834

Rotational constants in cm-1:     0.273965     0.056889     0.047553
Rotational constants in MHz :  8213.256497  1705.487795  1425.607633

                             ****ORCA TERMINATED NORMALLY****
TOTAL RUN TIME: 0 days 1 hours 5 minutes 44 seconds 868 msec
