                         Program Version 4.2.0 -  RELEASE  -
|  1> # 4mecn.malloum.etal.dset.2mecn.dset-orca.engrad-mp2.def2tzvp
|  2> ! MP2 def2-TZVP EnGrad TightSCF FrozenCore
|  3>
|  4> %pal
|  5>     nprocs 12
|  6> end
|  7>
|  8> %maxcore 8000
|  9>
| 10> %scf
| 11>     ConvForced true
| 12> end
| 13>
| 14> *xyz 0 1
| 15> C  -1.726327696  -2.380428963   0.392771355
| 16> H  -1.685319696  -2.288273963   1.482074355
| 17> H  -0.924208696  -3.047668963   0.069245355
| 18> H  -2.696185696  -2.784864963   0.091715355
| 19> C  -1.531907696  -1.059754963  -0.198736645
| 20> N  -1.392984696  -0.005858963  -0.668984645
| 21> C   1.726329304   0.683935037  -1.041407645
| 22> H   0.924209304   1.007458037  -1.708647645
| 23> H   1.685325304  -0.405368963  -0.949251645
| 24> H   2.696186304   0.984993037  -1.445843645
| 25> C   1.531908304   1.275443037   0.279265355
| 26> N   1.392982304   1.745691037   1.333161355
| 27> *
| 28>
| 29>
| 30> $new_job
| 31>
| 32> # 4mecn.malloum.etal.dset.2mecn.dset-orca.engrad-mp2.def2tzvp
| 33> ! MP2 def2-TZVP EnGrad TightSCF FrozenCore
| 34>
| 35> %pal
| 36>     nprocs 12
| 37> end
| 38>
| 39> %maxcore 8000
| 40>
| 41> %scf
| 42>     ConvForced true
| 43> end
| 44>
| 45> *xyz 0 1
| 46> C  -0.167508990  -2.249267963  -0.815091488
| 47> H  -0.126500990  -2.157112963   0.274211512
| 48> H   0.634610010  -2.916507963  -1.138617488
| 49> H  -1.137366990  -2.653703963  -1.116147488
| 50> C   0.026911010  -0.928593963  -1.406599488
| 51> N   0.165834010   0.125302037  -1.876847488
| 52> C  -0.167514990   2.249267037   0.815091512
| 53> H  -0.126508990   2.157111037  -0.274212488
| 54> H   0.634602010   2.916510037   1.138616512
| 55> H  -1.137373990   2.653699037   1.116148512
| 56> C   0.026910010   0.928594037   1.406599512
| 57> N   0.165838010  -0.125300963   1.876847512
| 58> *
| 59>
| 60>
| 61> $new_job
| 62>
| 63> # 4mecn.malloum.etal.dset.2mecn.dset-orca.engrad-mp2.def2tzvp
| 64> ! MP2 def2-TZVP EnGrad TightSCF FrozenCore
| 65>
| 66> %pal
| 67>     nprocs 12
| 68> end
| 69>
| 70> %maxcore 8000
| 71>
| 72> %scf
| 73>     ConvForced true
| 74> end
| 75>
| 76> *xyz 0 1
| 77> C  -1.726330904  -1.041408633  -0.683931158
| 78> H  -1.685322904  -0.949253633   0.405371842
| 79> H  -0.924211904  -1.708648633  -1.007457158
| 80> H  -2.696188904  -1.445844633  -0.984987158
| 81> C  -1.531910904   0.279265367  -1.275439158
| 82> N  -1.392987904   1.333161367  -1.745687158
| 83> C   1.726334096   0.392772367   2.380423842
| 84> H   2.696194096   0.091718367   2.784856842
| 85> H   0.924218096   0.069244367   3.047666842
| 86> H   1.685324096   1.482075367   2.288269842
| 87> C   1.531911096  -0.198736633   1.059751842
| 88> N   1.392984096  -0.668984633   0.005855842
| 89> *
| 90>
| 91>
| 92> $new_job
| 93>
| 94> # 4mecn.malloum.etal.dset.2mecn.dset-orca.engrad-mp2.def2tzvp
| 95> ! MP2 def2-TZVP EnGrad TightSCF FrozenCore
| 96>
| 97> %pal
| 98>     nprocs 12
| 99> end
|100>
|101> %maxcore 8000
|102>
|103> %scf
|104>     ConvForced true
|105> end
|106>
|107> *xyz 0 1
|108> C   1.726329928  -0.392767489  -2.380427671
|109> H   0.924209928  -0.069244489  -3.047667671
|110> H   1.685325928  -1.482071489  -2.288271671
|111> H   2.696186928  -0.091709489  -2.784863671
|112> C   1.531908928   0.198740511  -1.059754671
|113> N   1.392982928   0.668988511  -0.005858671
|114> C  -1.726333072   1.041403511   0.683934329
|115> H  -1.685327072   0.949247511  -0.405369671
|116> H  -0.924216072   1.708646511   1.007459329
|117> H  -2.696192072   1.445835511   0.984991329
|118> C  -1.531908072  -0.279269489   1.275442329
|119> N  -1.392980072  -1.333164489   1.745690329
|120> *
|121>
|122>
|123> $new_job
|124>
|125> # 4mecn.malloum.etal.dset.2mecn.dset-orca.engrad-mp2.def2tzvp
|126> ! MP2 def2-TZVP EnGrad TightSCF FrozenCore
|127>
|128> %pal
|129>     nprocs 12
|130> end
|131>
|132> %maxcore 8000
|133>
|134> %scf
|135>     ConvForced true
|136> end
|137>
|138> *xyz 0 1
|139> C   0.167508014   0.815091841  -2.249267341
|140> H  -0.634611986   1.138614841  -2.916507341
|141> H   0.126504014  -0.274212159  -2.157111341
|142> H   1.137365014   1.116149841  -2.653703341
|143> C  -0.026912986   1.406599841  -0.928594341
|144> N  -0.165838986   1.876847841   0.125301659
|145> C   0.167516014  -0.815091159   2.249266659
|146> H   1.137376014  -1.116145159   2.653699659
|147> H  -0.634599986  -1.138619159   2.916509659
|148> H   0.126506014   0.274211841   2.157112659
|149> C  -0.026906986  -1.406600159   0.928594659
|150> N  -0.165833986  -1.876848159  -0.125301341
|151> *
|152>
|153>
|154> $new_job
|155>
|156> # 4mecn.malloum.etal.dset.2mecn.dset-orca.engrad-mp2.def2tzvp
|157> ! MP2 def2-TZVP EnGrad TightSCF FrozenCore
|158>
|159> %pal
|160>     nprocs 12
|161> end
|162>
|163> %maxcore 8000
|164>
|165> %scf
|166>     ConvForced true
|167> end
|168>
|169> *xyz 0 1
|170> C  -1.726336280   2.380423842  -0.392768184
|171> H  -1.685330280   2.288267842  -1.482072184
|172> H  -0.924219280   3.047666842  -0.069243184
|173> H  -2.696195280   2.784855842  -0.091711184
|174> C  -1.531911280   1.059750842   0.198739816
|175> N  -1.392983280   0.005855842   0.668987816
|176> C   1.726334720  -0.683930158   1.041403816
|177> H   2.696194720  -0.984984158   1.445836816
|178> H   0.924218720  -1.007458158   1.708646816
|179> H   1.685324720   0.405372842   0.949249816
|180> C   1.531911720  -1.275439158  -0.279268184
|181> N   1.392984720  -1.745687158  -1.333164184
|182> *
|183>
|184>
|185> $new_job
|186>
|187> # 4mecn.malloum.etal.dset.2mecn.dset-orca.engrad-mp2.def2tzvp
|188> ! MP2 def2-TZVP EnGrad TightSCF FrozenCore
|189>
|190> %pal
|191>     nprocs 12
|192> end
|193>
|194> %maxcore 8000
|195>
|196> %scf
|197>     ConvForced true
|198> end
|199>
|200> *xyz 0 1
|201> C   2.664895195  -0.574137690  -1.159749376
|202> H   2.555582195  -1.653656690  -1.030756376
|203> H   3.570760195  -0.356524690  -1.731162376
|204> H   1.788380195  -0.196546690  -1.694440376
|205> C   2.729585195   0.072039310   0.147912624
|206> N   2.769474195   0.589303310   1.188243624
|207> C  -2.664894805  -0.574139690  -1.159748376
|208> H  -2.555564805  -1.653655690  -1.030755376
|209> H  -1.788390805  -0.196535690  -1.694446376
|210> H  -3.570767805  -0.356540690  -1.731154376
|211> C  -2.729584805   0.072038310   0.147912624
|212> N  -2.769474805   0.589305310   1.188242624
|213> *
|214>
|215>
|216> $new_job
|217>
|218> # 4mecn.malloum.etal.dset.2mecn.dset-orca.engrad-mp2.def2tzvp
|219> ! MP2 def2-TZVP EnGrad TightSCF FrozenCore
|220>
|221> %pal
|222>     nprocs 12
|223> end
|224>
|225> %maxcore 8000
|226>
|227> %scf
|228>     ConvForced true
|229> end
|230>
|231> *xyz 0 1
|232> C   1.306124134   0.087647055  -1.904277563
|233> H   1.196811134  -0.991871945  -1.775284563
|234> H   2.211989134   0.305260055  -2.475690563
|235> H   0.429609134   0.465238055  -2.438968563
|236> C   1.370814134   0.733824055  -0.596615563
|237> N   1.410703134   1.251088055   0.443715437
|238> C  -1.358770866  -0.132377945   1.926698437
|239> H  -0.462201866   0.484443055   2.043116437
|240> H  -1.358770866  -0.916298945   2.688526437
|241> H  -2.255339866   0.484442055   2.043116437
|242> C  -1.358770866  -0.730518945   0.594624437
|243> N  -1.358769866  -1.203422945  -0.467335563
|244> *
|245>
|246>
|247> $new_job
|248>
|249> # 4mecn.malloum.etal.dset.2mecn.dset-orca.engrad-mp2.def2tzvp
|250> ! MP2 def2-TZVP EnGrad TightSCF FrozenCore
|251>
|252> %pal
|253>     nprocs 12
|254> end
|255>
|256> %maxcore 8000
|257>
|258> %scf
|259>     ConvForced true
|260> end
|261>
|262> *xyz 0 1
|263> C   1.306124293  -1.633731925  -1.176003089
|264> H   1.196811293  -2.713250925  -1.047010089
|265> H   2.211989293  -1.416118925  -1.747416089
|266> H   0.429609293  -1.256140925  -1.710694089
|267> C   1.370814293  -0.987554925   0.131658911
|268> N   1.410703293  -0.470290925   1.171989911
|269> C  -1.358770707   1.595293075   1.195504911
|270> H  -0.462166707   1.275580075   1.735081911
|271> H  -2.255372707   1.275578075   1.735082911
|272> H  -1.358771707   2.685033075   1.109975911
|273> C  -1.358770707   0.991098075  -0.133831089
|274> N  -1.358770707   0.510956075  -1.192247089
|275> *
|276>
|277>
|278> $new_job
|279>
|280> # 4mecn.malloum.etal.dset.2mecn.dset-orca.engrad-mp2.def2tzvp
|281> ! MP2 def2-TZVP EnGrad TightSCF FrozenCore
|282>
|283> %pal
|284>     nprocs 12
|285> end
|286>
|287> %maxcore 8000
|288>
|289> %scf
|290>     ConvForced true
|291> end
|292>
|293> *xyz 0 1
|294> C  -1.306124280   0.087645202  -1.904276576
|295> H  -1.196794280  -0.991870798  -1.775283576
|296> H  -0.429620280   0.465249202  -2.438974576
|297> H  -2.211997280   0.305244202  -2.475682576
|298> C  -1.370814280   0.733823202  -0.596615576
|299> N  -1.410704280   1.251090202   0.443714424
|300> C   1.358770720  -0.132377798   1.926698424
|301> H   2.255339720   0.484443202   2.043116424
|302> H   1.358770720  -0.916298798   2.688526424
|303> H   0.462201720   0.484442202   2.043116424
|304> C   1.358770720  -0.730518798   0.594624424
|305> N   1.358771720  -1.203422798  -0.467335576
|306> *
|307>
|308>
|309> $new_job
|310>
|311> # 4mecn.malloum.etal.dset.2mecn.dset-orca.engrad-mp2.def2tzvp
|312> ! MP2 def2-TZVP EnGrad TightSCF FrozenCore
|313>
|314> %pal
|315>     nprocs 12
|316> end
|317>
|318> %maxcore 8000
|319>
|320> %scf
|321>     ConvForced true
|322> end
|323>
|324> *xyz 0 1
|325> C  -1.306124122  -1.633733778  -1.176002101
|326> H  -1.196794122  -2.713249778  -1.047009101
|327> H  -0.429620122  -1.256129778  -1.710700101
|328> H  -2.211997122  -1.416134778  -1.747408101
|329> C  -1.370814122  -0.987555778   0.131658899
|330> N  -1.410704122  -0.470288778   1.171988899
|331> C   1.358770878   1.595293222   1.195504899
|332> H   2.255374878   1.275580222   1.735081899
|333> H   0.462168878   1.275578222   1.735082899
|334> H   1.358769878   2.685033222   1.109975899
|335> C   1.358770878   0.991098222  -0.133831101
|336> N   1.358770878   0.510956222  -1.192247101
|337> *
|338>
|339>
|340> $new_job
|341>
|342> # 4mecn.malloum.etal.dset.2mecn.dset-orca.engrad-mp2.def2tzvp
|343> ! MP2 def2-TZVP EnGrad TightSCF FrozenCore
|344>
|345> %pal
|346>     nprocs 12
|347> end
|348>
|349> %maxcore 8000
|350>
|351> %scf
|352>     ConvForced true
|353> end
|354>
|355> *xyz 0 1
|356> C  -0.000000183  -1.191972033   1.910444712
|357> H   0.896568817  -0.575151033   2.026862712
|358> H  -0.000000183  -1.975893033   2.672272712
|359> H  -0.896569183  -0.575152033   2.026862712
|360> C  -0.000000183  -1.790113033   0.578370712
|361> N   0.000000817  -2.263017033  -0.483589288
|362> C  -0.000000183   2.257077967   0.450976712
|363> H   0.896603817   1.937364967   0.990553712
|364> H  -0.896602183   1.937362967   0.990554712
|365> H  -0.000001183   3.346817967   0.365447712
|366> C  -0.000000183   1.652882967  -0.878359288
|367> N  -0.000000183   1.172740967  -1.936775288
|368> *
|369>
|370>
|371> $new_job
|372>
|373> # 4mecn.malloum.etal.dset.2mecn.dset-orca.engrad-mp2.def2tzvp
|374> ! MP2 def2-TZVP EnGrad TightSCF FrozenCore
|375>
|376> %pal
|377>     nprocs 12
|378> end
|379>
|380> %maxcore 8000
|381>
|382> %scf
|383>     ConvForced true
|384> end
|385>
|386> *xyz 0 1
|387> C  -2.661601426   0.002424595  -1.292846926
|388> H  -3.546118426   0.474790595  -1.727561926
|389> H  -2.602512426  -1.041529405  -1.610022926
|390> H  -1.759494426   0.521133595  -1.630463926
|391> C  -2.722996426   0.068572595   0.164403074
|392> N  -2.760666426   0.122552595   1.325047074
|393> C   2.661598574  -0.002449405  -1.292848926
|394> H   3.546102574  -0.474844405  -1.727557926
|395> H   2.602531574   1.041499595  -1.610044926
|396> H   1.759479574  -0.521144405  -1.630452926
|397> C   2.722996574  -0.068570405   0.164402074
|398> N   2.760669574  -0.122526405   1.325047074
|399> *
|400>
|715> ! MP2 def2-TZVP EnGrad TightSCF FrozenCore
|716>
|717> %pal
|718>     nprocs 12
|719> end
|720>
|721> %maxcore 8000
|722>
|723> %scf
|724>     ConvForced true
|725> end
|726>
|727> *xyz 0 1
|728> C   1.753633223  -1.617141019   0.179754595
|729> H   1.835133223  -2.091336019   1.161229595
|730> H   2.650808223  -1.843413019  -0.403029405
|731> H   0.861313223  -1.994835019  -0.327213405
|732> C   1.638084223  -0.170741019   0.339178595
|733> N   1.544876223   0.981869981   0.459704595
|734> C  -1.770500777   1.605299981  -0.105487405
|735> H  -2.119985777   2.107576981  -1.011086405
|736> H  -0.794394777   2.008666981   0.179348595
|737> H  -2.486444777   1.785318981   0.700452595
|738> C  -1.640073777   0.170654981  -0.347807405
|739> N  -1.524852777  -0.969627019  -0.537550405
|740> *
|741>
|742>
|743> $new_job
|744>
|745> # 4mecn.malloum.etal.dset.2mecn.dset-orca.engrad-mp2.def2tzvp
|746> ! MP2 def2-TZVP EnGrad TightSCF FrozenCore
|747>
|748> %pal
|749>     nprocs 12
|750> end
|751>
|752> %maxcore 8000
|753>
|754> %scf
|755>     ConvForced true
|756> end
|757>
|758> *xyz 0 1
|759> C  -0.765345312  -1.497441381  -1.711838687
|760> H  -1.769266312  -1.535039381  -2.142391687
|761> H  -0.209025312  -2.382594381  -2.030659687
|762> H  -0.251337312  -0.599202381  -2.065949687
|763> C  -0.846869312  -1.455919381  -0.253823687
|764> N  -0.906940312  -1.414788381   0.905354313
|765> C   0.837116688   1.459199619   1.714747313
|766> H   1.870661688   1.419889619   2.070513313
|767> H   0.286059688   0.584708619   2.072578313
|768> H   0.354852688   2.374258619   2.070474313
|769> C   0.835930688   1.457492619   0.256054313
|770> N   0.834492688   1.456157619  -0.907930687
|771> *
|772>
|773>
|774> $new_job
|775>
|776> # 4mecn.malloum.etal.dset.2mecn.dset-orca.engrad-mp2.def2tzvp
|777> ! MP2 def2-TZVP EnGrad TightSCF FrozenCore
|778>
|779> %pal
|780>     nprocs 12
|781> end
|782>
|783> %maxcore 8000
|784>
|785> %scf
|786>     ConvForced true
|787> end
|788>
|789> *xyz 0 1
|790> C   0.107059671  -2.932614774  -1.290678448
|791> H  -0.896861329  -2.970212774  -1.721231448
|792> H   0.663379671  -3.817767774  -1.609499448
|793> H   0.621067671  -2.034375774  -1.644789448
|794> C   0.025535671  -2.891092774   0.167336552
|795> N  -0.034535329  -2.849961774   1.326514552
|796> C  -0.114657329   2.841936226  -1.293471448
|797> H  -1.160411329   2.774887226  -1.604199448
|798> H   0.425738671   1.958714226  -1.646084448
|799> H   0.329363671   3.738848226  -1.732827448
|800> C  -0.028531329   2.902689226   0.163604552
|801> N   0.044893671   2.942947226   1.322043552
|802> *
|803>
|804>
|805> $new_job
|806>
|807> # 4mecn.malloum.etal.dset.2mecn.dset-orca.engrad-mp2.def2tzvp
|808> ! MP2 def2-TZVP EnGrad TightSCF FrozenCore
|809>
|810> %pal
|811>     nprocs 12
|812> end
|813>
|814> %maxcore 8000
|815>
|816> %scf
|817>     ConvForced true
|818> end
|819>
|820> *xyz 0 1
|821> C  -2.444746125  -1.517294128  -1.287307251
|822> H  -3.448667125  -1.554892128  -1.717860251
|823> H  -1.888426125  -2.402447128  -1.606128251
|824> H  -1.930738125  -0.619055128  -1.641418251
|825> C  -2.526270125  -1.475772128   0.170707749
|826> N  -2.586341125  -1.434641128   1.329885749
|827> C   2.511257875   1.560856872  -1.297509251
|828> H   3.055238875   0.717513872  -1.730514251
|829> H   2.987928875   2.491639872  -1.615414251
|830> H   1.475954875   1.545038872  -1.649981251
|831> C   2.519562875   1.466907872   0.160317749
|832> N   2.516980875   1.392095872   1.319364749
|833> *
|834>
|835>
|836> $new_job
|837>
|838> # 4mecn.malloum.etal.dset.2mecn.dset-orca.engrad-mp2.def2tzvp
|839> ! MP2 def2-TZVP EnGrad TightSCF FrozenCore
|840>
|841> %pal
|842>     nprocs 12
|843> end
|844>
|845> %maxcore 8000
|846>
|847> %scf
|848>     ConvForced true
|849> end
|850>
|851> *xyz 0 1
|852> C   0.873641806  -1.433666904   1.716557775
|853> H   1.907186806  -1.472976904   2.072323775
|854> H   0.322584806  -2.308157904   2.074388775
|855> H   0.391377806  -0.518607904   2.072284775
|856> C   0.872455806  -1.435373904   0.257864775
|857> N   0.871017806  -1.436708904  -0.906120225
|858> C  -0.950537194   1.384243096  -1.712821225
|859> H  -1.996291194   1.317194096  -2.023549225
|860> H  -0.410141194   0.501021096  -2.065434225
|861> H  -0.506516194   2.281155096  -2.152177225
|862> C  -0.864411194   1.444996096  -0.255745225
|863> N  -0.790986194   1.485254096   0.902693775
|864> *
|865>
|866>
|867> $new_job
|868>
|869> # 4mecn.malloum.etal.dset.2mecn.dset-orca.engrad-mp2.def2tzvp
|870> ! MP2 def2-TZVP EnGrad TightSCF FrozenCore
|871>
|872> %pal
|873>     nprocs 12
|874> end
|875>
|876> %maxcore 8000
|877>
|878> %scf
|879>     ConvForced true
|880> end
|881>
|882> *xyz 0 1
|883> C  -1.678163991  -0.018346258   1.719928973
|884> H  -0.644618991  -0.057656258   2.075694973
|885> H  -2.229220991  -0.892837258   2.077759973
|886> H  -2.160427991   0.896712742   2.075655973
|887> C  -1.679349991  -0.020053258   0.261235973
|888> N  -1.680787991  -0.021388258  -0.902749027
|889> C   1.675378009   0.103163742  -1.716859027
|890> H   2.219359009  -0.740179258  -2.149864027
|891> H   2.152049009   1.033946742  -2.034764027
|892> H   0.640075009   0.087345742  -2.069331027
|893> C   1.683683009   0.009214742  -0.259032027
|894> N   1.681101009  -0.065597258   0.900014973
|895> *
|896>
|897>
|898> $new_job
|899>
|900> # 4mecn.malloum.etal.dset.2mecn.dset-orca.engrad-mp2.def2tzvp
|901> ! MP2 def2-TZVP EnGrad TightSCF FrozenCore
|902>
|903> %pal
|904>     nprocs 12
|905> end
|906>
|907> %maxcore 8000
|908>
|909> %scf
|910>     ConvForced true
|911> end
|912>
|913> *xyz 0 1
|914> C  -2.629938007   1.364390349  -1.288289788
|915> H  -3.675692007   1.297341349  -1.599017788
|916> H  -2.089542007   0.481168349  -1.640902788
|917> H  -2.185917007   2.261302349  -1.727645788
|918> C  -2.543812007   1.425143349   0.168786212
|919> N  -2.470387007   1.465401349   1.327225212
|920> C   2.547782993  -1.332009651  -1.295698788
|921> H   3.091763993  -2.175352651  -1.728703788
|922> H   3.024453993  -0.401226651  -1.613603788
|923> H   1.512479993  -1.347827651  -1.648170788
|924> C   2.556087993  -1.425958651   0.162128212
|925> N   2.553505993  -1.500770651   1.321175212
|926> *
|927>
|928>
|929> $new_job
|930>
|931> # 4mecn.malloum.etal.dset.2mecn.dset-orca.engrad-mp2.def2tzvp
|932> ! MP2 def2-TZVP EnGrad TightSCF FrozenCore
|933>
|934> %pal
|935>     nprocs 12
|936> end
|937>
|938> %maxcore 8000
|939>
|940> %scf
|941>     ConvForced true
|942> end
|943>
|944> *xyz 0 1
|945> C  -2.294545311  -0.117133102   0.005404369
|946> H  -2.841671311   0.211911898  -0.881926631
|947> H  -1.300055311   0.340214898   0.002518369
|948> H  -2.835860311   0.210539898   0.896799369
|949> C  -2.180533311  -1.572902102   0.003916369
|950> N  -2.090473311  -2.730730102   0.002783369
|951> C   3.484205689   1.508192898  -0.005566631
|952> H   3.941581689   0.513716898  -0.002597631
|953> H   3.813340689   2.055450898   0.881650369
|954> H   3.811762689   2.049391898  -0.897074631
|955> C   2.028440689   1.394145898  -0.003895631
|956> N   0.870615689   1.304049898  -0.002616631
|957> *
|958>
|959>
|960> $new_job
|961>
|962> # 4mecn.malloum.etal.dset.2mecn.dset-orca.engrad-mp2.def2tzvp
|963> ! MP2 def2-TZVP EnGrad TightSCF FrozenCore
|964>
|965> %pal
|966>     nprocs 12
|967> end
|968>
|969> %maxcore 8000
|970>
|971> %scf
|972>     ConvForced true
|973> end
|974>
|975> *xyz 0 1
|976> C  -3.702070132   2.076679099   0.001284564
|977> H  -4.249196132   2.405724099  -0.886046436
|978> H  -2.707580132   2.534027099  -0.001601436
|979> H  -4.243385132   2.404352099   0.892679564
|980> C  -3.588058132   0.620910099  -0.000203436
|981> N  -3.497998132  -0.536917901  -0.001336436
|982> C   3.702033868  -2.076681901   0.001430564
|983> H   4.249282868  -2.405810901  -0.885793436
|984> H   2.707533868  -2.534005901  -0.001562436
|985> H   4.243207868  -2.404299901   0.892931564
|986> C   3.588061868  -0.620909901  -0.000185436
|987> N   3.498035868   0.536921099  -0.001421436
|988> *
|989>
|990>
|991> $new_job
|992>
|993> # 4mecn.malloum.etal.dset.2mecn.dset-orca.engrad-mp2.def2tzvp
|994> ! MP2 def2-TZVP EnGrad TightSCF FrozenCore
|995>
|996> %pal
|997>     nprocs 12
|998> end
|999>
|1000> %maxcore 8000
|1001>
|1002> %scf
|1003>     ConvForced true
|1004> end
|1005>
|1006> *xyz 0 1
|1007> C  -1.508205229   3.484177575   0.005392421
|1008> H  -2.055331229   3.813222575  -0.881938579
|1009> H  -0.513715229   3.941525575   0.002506421
|1010> H  -2.049520229   3.811850575   0.896787421
|1011> C  -1.394193229   2.028408575   0.003904421
|1012> N  -1.304133229   0.870580575   0.002771421
|1013> C   0.117180771  -2.294534425  -0.005283579
|1014> H  -0.340186229  -1.300054425  -0.002407579
|1015> H  -0.211784229  -2.841625425   0.882098421
|1016> H  -0.210553229  -2.835895425  -0.896627579
|1017> C   1.572947771  -2.180498425  -0.003917579
|1018> N   2.730774771  -2.090420425  -0.002883579
|1019> *
|1020>
|1021>
|1022> $new_job
|1023>
|1024> # 4mecn.malloum.etal.dset.2mecn.dset-orca.engrad-mp2.def2tzvp
|1025> ! MP2 def2-TZVP EnGrad TightSCF FrozenCore
|1026>
|1027> %pal
|1028>     nprocs 12
|1029> end
|1030>
|1031> %maxcore 8000
|1032>
|1033> %scf
|1034>     ConvForced true
|1035> end
|1036>
|1037> *xyz 0 1
|1038> C  -0.117183403   2.294526971  -0.005582798
|1039> H   0.340192597   1.300050971  -0.002613798
|1040> H   0.211951597   2.841784971   0.881634202
|1041> H   0.210373597   2.835725971  -0.897090798
|1042> C  -1.572948403   2.180479971  -0.003911798
|1043> N  -2.730773403   2.090383971  -0.002632798
|1044> C   1.508169597  -3.484160029   0.005534202
|1045> H   2.055418597  -3.813289029  -0.881689798
|1046> H   0.513669597  -3.941484029   0.002541202
|1047> H   2.049343597  -3.811778029   0.897035202
|1048> C   1.394197597  -2.028388029   0.003918202
|1049> N   1.304171597  -0.870557029   0.002682202
|1050> *
|1051>
|1052>
|1053> $new_job
|1054>
|1055> # 4mecn.malloum.etal.dset.2mecn.dset-orca.engrad-mp2.def2tzvp
|1056> ! MP2 def2-TZVP EnGrad TightSCF FrozenCore
|1057>
|1058> %pal
|1059>     nprocs 12
|1060> end
|1061>
|1062> %maxcore 8000
|1063>
|1064> %scf
|1065>     ConvForced true
|1066> end
|1067>
|1068> *xyz 0 1
|1069> C   2.076681500   3.702025446  -0.001474941
|1070> H   2.534057500   2.707549446   0.001494059
|1071> H   2.405816500   4.249283446   0.885742059
|1072> H   2.404238500   4.243224446  -0.892982941
|1073> C   0.620916500   3.587978446   0.000196059
|1074> N  -0.536908500   3.497882446   0.001475059
|1075> C  -2.076683500  -3.702012554  -0.001179941
|1076> H  -2.534050500  -2.707532554   0.001696059
|1077> H  -2.405648500  -4.249103554   0.886202059
|1078> H  -2.404417500  -4.243373554  -0.892523941
|1079> C  -0.620916500  -3.587976554   0.000186059
|1080> N   0.536910500  -3.497898554   0.001220059
|1081> *
|1082>
|1083>
|1084> $new_job
|1085>
|1086> # 4mecn.malloum.etal.dset.2mecn.dset-orca.engrad-mp2.def2tzvp
|1087> ! MP2 def2-TZVP EnGrad TightSCF FrozenCore
|1088>
|1089> %pal
|1090>     nprocs 12
|1091> end
|1092>
|1093> %maxcore 8000
|1094>
|1095> %scf
|1096>     ConvForced true
|1097> end
|1098>
|1099> *xyz 0 1
|1100> C   2.294509679   0.117150647   0.005522254
|1101> H   2.841758679  -0.211978353  -0.881701746
|1102> H   1.300009679  -0.340173353   0.002529254
|1103> H   2.835683679  -0.210467353   0.897023254
|1104> C   2.180537679   1.572922647   0.003906254
|1105> N   2.090511679   2.730753647   0.002670254
|1106> C  -3.484208321  -1.508200353  -0.005299746
|1107> H  -3.941575321  -0.513720353  -0.002423746
|1108> H  -3.813173321  -2.055291353   0.882082254
|1109> H  -3.811942321  -2.049561353  -0.896643746
|1110> C  -2.028441321  -1.394164353  -0.003933746
|1111> N  -0.870614321  -1.304086353  -0.002899746
|1112> *
|1113>
|1114>                          ****END OF INPUT****
 Total Charge           Charge          ....    0
 Multiplicity           Mult            ....    1
 Number of Electrons    NEL             ....   44
MP2 TOTAL ENERGY:     -264.970036519 Eh
FINAL SINGLE POINT ENERGY      -264.970036519080
MP2 TOTAL ENERGY:     -264.975927538 Eh
FINAL SINGLE POINT ENERGY      -264.975927537922
MP2 TOTAL ENERGY:     -264.970036382 Eh
FINAL SINGLE POINT ENERGY      -264.970036381510
MP2 TOTAL ENERGY:     -264.970036230 Eh
FINAL SINGLE POINT ENERGY      -264.970036230360
MP2 TOTAL ENERGY:     -264.975927535 Eh
FINAL SINGLE POINT ENERGY      -264.975927534774
MP2 TOTAL ENERGY:     -264.970036371 Eh
FINAL SINGLE POINT ENERGY      -264.970036371309
FINAL SINGLE POINT ENERGY      -264.964797652707
FINAL SINGLE POINT ENERGY      -264.975932230450
FINAL SINGLE POINT ENERGY      -264.976136148748
FINAL SINGLE POINT ENERGY      -264.975932306187
FINAL SINGLE POINT ENERGY      -264.965014069480
FINAL SINGLE POINT ENERGY      -264.976119483059
FINAL SINGLE POINT ENERGY      -264.976118240292
FINAL SINGLE POINT ENERGY      -264.965015386418
MP2 TOTAL ENERGY:     -264.971454212 Eh
FINAL SINGLE POINT ENERGY      -264.971454212125
MP2 TOTAL ENERGY:     -264.967181069 Eh
FINAL SINGLE POINT ENERGY      -264.967181068922
MP2 TOTAL ENERGY:     -264.971454187 Eh
FINAL SINGLE POINT ENERGY      -264.971454186896
MP2 TOTAL ENERGY:     -264.971454149 Eh
FINAL SINGLE POINT ENERGY      -264.971454148612
MP2 TOTAL ENERGY:     -264.967181101 Eh
FINAL SINGLE POINT ENERGY      -264.967181100532

CARTESIAN COORDINATES (ANGSTROEM)
---------------------------------
  C      2.294510    0.117151    0.005522
  H      2.841759   -0.211978   -0.881702
  H      1.300010   -0.340173    0.002529
  H      2.835684   -0.210467    0.897023
  C      2.180538    1.572923    0.003906
  N      2.090512    2.730754    0.002670
  C     -3.484208   -1.508200   -0.005300
  H     -3.941575   -0.513720   -0.002424
  H     -3.813173   -2.055291    0.882082
  H     -3.811942   -2.049561   -0.896644
  C     -2.028441   -1.394164   -0.003934
  N     -0.870614   -1.304086   -0.002900

 Multiplicity           Mult            ....    1
 Number of Electrons    NEL             ....   44
 Basis Dimension        Dim             ....  222

ORBITAL ENERGIES
----------------

  NO   OCC          E(Eh)            E(eV)
   0   2.0000     -15.586067      -424.1184
   1   2.0000     -15.553584      -423.2345
   2   2.0000     -11.296807      -307.4018
   3   2.0000     -11.295966      -307.3789
   4   2.0000     -11.262490      -306.4679
   5   2.0000     -11.258905      -306.3704
   6   2.0000      -1.232334       -33.5335
   7   2.0000      -1.199533       -32.6410
   8   2.0000      -1.051159       -28.6035
   9   2.0000      -1.016408       -27.6579
  10   2.0000      -0.711110       -19.3503
  11   2.0000      -0.675983       -18.3944
  12   2.0000      -0.639734       -17.4080
  13   2.0000      -0.639563       -17.4034
  14   2.0000      -0.612028       -16.6541
  15   2.0000      -0.606423       -16.5016
  16   2.0000      -0.567092       -15.4314
  17   2.0000      -0.538890       -14.6640
  18   2.0000      -0.475444       -12.9375
  19   2.0000      -0.475440       -12.9374
  20   2.0000      -0.442661       -12.0454
  21   2.0000      -0.441301       -12.0084
  22   0.0000       0.110808         3.0152
  23   0.0000       0.142096         3.8666
  24   0.0000       0.160462         4.3664
  25   0.0000       0.160519         4.3679
  26   0.0000       0.190851         5.1933

MULLIKEN ATOMIC CHARGES
-----------------------
   0 C :   -0.275023
   1 H :    0.159427
   2 H :    0.192453
   3 H :    0.159414
   4 C :   -0.156050
   5 N :   -0.095621
   6 C :   -0.284108
   7 H :    0.178771
   8 H :    0.175045
   9 H :    0.175056
  10 C :   -0.103898
  11 N :   -0.125466
Sum of atomic charges:    0.0000000

LOEWDIN ATOMIC CHARGES
----------------------
   0 C :   -0.287208
   1 H :    0.147967
   2 H :    0.151019
   3 H :    0.147965
   4 C :   -0.217136
   5 N :    0.035257
   6 C :   -0.277473
   7 H :    0.153459
   8 H :    0.152409
   9 H :    0.152415
  10 C :   -0.199870
  11 N :    0.041197

  Mayer bond orders larger than 0.100000
B(  0-C ,  1-H ) :   0.9194 B(  0-C ,  2-H ) :   0.9028 B(  0-C ,  3-H ) :   0.9194
B(  0-C ,  4-C ) :   0.9010 B(  4-C ,  5-N ) :   2.8541 B(  6-C ,  7-H ) :   0.9162
B(  6-C ,  8-H ) :   0.9160 B(  6-C ,  9-H ) :   0.9160 B(  6-C , 10-C ) :   0.9035
B( 10-C , 11-N ) :   2.7731

MP2 TOTAL ENERGY:     -264.971454143 Eh
FINAL SINGLE POINT ENERGY      -264.971454142630

DIPOLE MOMENT
-------------
                                X             Y             Z
Electronic contribution:      2.65431       3.25279      -0.00107
Nuclear contribution   :     -4.29870      -5.04053       0.00081
                        -----------------------------------------
Total Dipole Moment    :     -1.64439      -1.78774      -0.00026
                        -----------------------------------------
Magnitude (a.u.)       :      2.42900
Magnitude (Debye)      :      6.17403

Rotational constants in cm-1:     0.289059     0.027359     0.025232
Rotational constants in MHz :  8665.758392   820.203382   756.438156

                             ****ORCA TERMINATED NORMALLY****
TOTAL RUN TIME: 0 days 0 hours 23 minutes 28 seconds 239 msec
