                         Program Version 4.2.0 -  RELEASE  -
|  1> # 4h2o.temelso.etal-orca.engrad-mp2.augccpvtz
|  2> ! MP2 aug-cc-pVTZ EnGrad TightSCF FrozenCore
|  3>
|  4> %pal
|  5>     nprocs 24
|  6> end
|  7>
|  8> %maxcore 8000
|  9>
| 10> %scf
| 11>     ConvForced true
| 12> end
| 13>
| 14> *xyz 0 1
| 15> O  -1.320198601  -1.380390210  -0.358727797
| 16> H  -1.738398601  -1.594990210  -1.201527797
| 17> H  -1.483398601  -0.416890210  -0.235227797
| 18> O   1.405201399  -1.341990210  -0.003327797
| 19> H   0.447601399  -1.480790210  -0.188027797
| 20> H   1.617101399  -1.979090210   0.689872203
| 21> O   1.309001399   1.370509790   0.430672203
| 22> H   1.467201399   0.402609790   0.338572203
| 23> H   1.950901399   1.782309790  -0.160727797
| 24> O  -1.393998601   1.351909790  -0.068627797
| 25> H  -0.431598601   1.494909790   0.085072203
| 26> H  -1.829498601   1.791309790   0.672172203
| 27> *
| 28>
| 29>
| 30> $new_job
| 31>
| 32> # 4h2o.temelso.etal-orca.engrad-mp2.augccpvtz
| 33> ! MP2 aug-cc-pVTZ EnGrad TightSCF FrozenCore
| 34>
| 35> %pal
| 36>     nprocs 24
| 37> end
| 38>
| 39> %maxcore 8000
| 40>
| 41> %scf
| 42>     ConvForced true
| 43> end
| 44>
| 45> *xyz 0 1
| 46> O   1.398737412  -1.347769405  -0.120652797
| 47> H   1.655837412  -2.014469405   0.527847203
| 48> H   0.437237412  -1.494969405  -0.271652797
| 49> O   1.319237412   1.310030595   0.576647203
| 50> H   1.995537412   1.800630595   0.094247203
| 51> H   1.476237412   0.365530595   0.344947203
| 52> O  -1.398662588   1.347930595   0.120047203
| 53> H  -0.437162588   1.495130595   0.271447203
| 54> H  -1.655262588   2.014130595  -0.529052797
| 55> O  -1.319362588  -1.310169405  -0.576052797
| 56> H  -1.476262588  -0.365669405  -0.344652797
| 57> H  -1.995362588  -1.800669405  -0.092952797
| 58> *
| 59>
| 60>
| 61> $new_job
| 62>
| 63> # 4h2o.temelso.etal-orca.engrad-mp2.augccpvtz
| 64> ! MP2 aug-cc-pVTZ EnGrad TightSCF FrozenCore
| 65>
| 66> %pal
| 67>     nprocs 24
| 68> end
| 69>
| 70> %maxcore 8000
| 71>
| 72> %scf
| 73>     ConvForced true
| 74> end
| 75>
| 76> *xyz 0 1
| 77> O   1.735358996  -0.203142318   0.733010781
| 78> H   1.442758996   0.539957682   0.169610781
| 79> H   2.683158996  -0.075442318   0.857310781
| 80> O  -1.665041004   0.324257682   0.855810781
| 81> H  -1.365941004   0.346657682   1.774310781
| 82> H  -1.312341004  -0.521342318   0.503610781
| 83> O   0.132058996   1.399957682  -0.904289219
| 84> H  -0.609541004   1.253257682  -0.273189219
| 85> H   0.011058996   2.290657682  -1.253389219
| 86> O  -0.276941004  -1.610742318  -0.694289219
| 87> H  -0.242441004  -0.928142318  -1.381989219
| 88> H   0.576958996  -1.482142318  -0.241389219
| 89> *
| 90>
| 91>                          ****END OF INPUT****
 Total Charge           Charge          ....    0
 Multiplicity           Mult            ....    1
 Number of Electrons    NEL             ....   40
MP2 TOTAL ENERGY:     -305.361287540 Eh
FINAL SINGLE POINT ENERGY      -305.361287540244
MP2 TOTAL ENERGY:     -305.359965834 Eh
FINAL SINGLE POINT ENERGY      -305.359965834368

CARTESIAN COORDINATES (ANGSTROEM)
---------------------------------
  O      1.735359   -0.203142    0.733011
  H      1.442759    0.539958    0.169611
  H      2.683159   -0.075442    0.857311
  O     -1.665041    0.324258    0.855811
  H     -1.365941    0.346658    1.774311
  H     -1.312341   -0.521342    0.503611
  O      0.132059    1.399958   -0.904289
  H     -0.609541    1.253258   -0.273189
  H      0.011059    2.290658   -1.253389
  O     -0.276941   -1.610742   -0.694289
  H     -0.242441   -0.928142   -1.381989
  H      0.576959   -1.482142   -0.241389

 Multiplicity           Mult            ....    1
 Number of Electrons    NEL             ....   40
 Basis Dimension        Dim             ....  368

ORBITAL ENERGIES
----------------

  NO   OCC          E(Eh)            E(eV)
   0   2.0000     -20.571317      -559.7740
   1   2.0000     -20.567174      -559.6612
   2   2.0000     -20.564363      -559.5848
   3   2.0000     -20.553576      -559.2912
   4   2.0000      -1.365690       -37.1623
   5   2.0000      -1.349632       -36.7254
   6   2.0000      -1.344990       -36.5990
   7   2.0000      -1.334009       -36.3002
   8   2.0000      -0.740589       -20.1525
   9   2.0000      -0.721506       -19.6332
  10   2.0000      -0.706704       -19.2304
  11   2.0000      -0.694436       -18.8966
  12   2.0000      -0.608671       -16.5628
  13   2.0000      -0.598631       -16.2896
  14   2.0000      -0.589418       -16.0389
  15   2.0000      -0.562176       -15.2976
  16   2.0000      -0.519314       -14.1312
  17   2.0000      -0.511793       -13.9266
  18   2.0000      -0.509413       -13.8618
  19   2.0000      -0.494240       -13.4490
  20   0.0000       0.022893         0.6230
  21   0.0000       0.038469         1.0468
  22   0.0000       0.045235         1.2309
  23   0.0000       0.055577         1.5123
  24   0.0000       0.066985         1.8228

MULLIKEN ATOMIC CHARGES
-----------------------
   0 O :   -0.488373
   1 H :    0.321295
   2 H :    0.150380
   3 O :   -0.469340
   4 H :    0.185831
   5 H :    0.320653
   6 O :   -0.490805
   7 H :    0.316980
   8 H :    0.149852
   9 O :   -0.565737
  10 H :    0.251017
  11 H :    0.318247
Sum of atomic charges:   -0.0000000

LOEWDIN ATOMIC CHARGES
----------------------
   0 O :    1.078088
   1 H :   -0.630781
   2 H :   -0.469879
   3 O :    1.096016
   4 H :   -0.450150
   5 H :   -0.599250
   6 O :    1.095265
   7 H :   -0.642655
   8 H :   -0.455021
   9 O :    1.081422
  10 H :   -0.503263
  11 H :   -0.599790

  Mayer bond orders larger than 0.100000
B(  0-O ,  1-H ) :   0.8182 B(  0-O ,  2-H ) :   1.0078 B(  3-O ,  4-H ) :   0.9818
B(  3-O ,  5-H ) :   0.8132 B(  6-O ,  7-H ) :   0.8051 B(  6-O ,  8-H ) :   1.0026
B(  9-O , 10-H ) :   0.9097 B(  9-O , 11-H ) :   0.8365

MP2 TOTAL ENERGY:     -305.355103889 Eh
FINAL SINGLE POINT ENERGY      -305.355103889132

DIPOLE MOMENT
-------------
                                X             Y             Z
Electronic contribution:     -0.32305      -0.32918      -0.00661
Nuclear contribution   :      1.10937       1.33411       0.14516
                        -----------------------------------------
Total Dipole Moment    :      0.78632       1.00493       0.13856
                        -----------------------------------------
Magnitude (a.u.)       :      1.28350
Magnitude (Debye)      :      3.26240

Rotational constants in cm-1:     0.125997     0.106938     0.087007
Rotational constants in MHz :  3777.287233  3205.933136  2608.416240

                             ****ORCA TERMINATED NORMALLY****
TOTAL RUN TIME: 0 days 0 hours 8 minutes 56 seconds 357 msec
