                         Program Version 4.2.0 -  RELEASE  -
|  1> # 6h2o.temelso.etal.dset.2h2o-orca.engrad-mp2.augccpvtz-0.to.49
|  2> ! MP2 aug-cc-pVTZ EnGrad TightSCF FrozenCore
|  3>
|  4> %pal
|  5>     nprocs 12
|  6> end
|  7>
|  8> %maxcore 8000
|  9>
| 10> %scf
| 11>     ConvForced true
| 12> end
| 13>
| 14> *xyz 0 1
| 15> O  -0.182894155  -1.394391725   0.241612437
| 16> H   0.007305845  -1.519391725  -0.704187563
| 17> H  -0.289594155  -0.417691725   0.276212437
| 18> O   0.116005845   1.355308275  -0.166287563
| 19> H   0.378005845   1.062408275  -1.056787563
| 20> H   0.966105845   1.495108275   0.289012437
| 21> *
| 22>
| 23>
| 24> $new_job
| 25>
| 26> # 6h2o.temelso.etal.dset.2h2o-orca.engrad-mp2.augccpvtz-0.to.49
| 27> ! MP2 aug-cc-pVTZ EnGrad TightSCF FrozenCore
| 28>
| 29> %pal
| 30>     nprocs 12
| 31> end
| 32>
| 33> %maxcore 8000
| 34>
| 35> %scf
| 36>     ConvForced true
| 37> end
| 38>
| 39> *xyz 0 1
| 40> O  -0.624764702  -0.470280185   1.298172357
| 41> H  -0.434564702  -0.595280185   0.352372357
| 42> H  -0.731464702   0.506419815   1.332772357
| 43> O   0.564735298   0.431319815  -1.212027643
| 44> H   0.626935298   0.344119815  -2.170827643
| 45> H   1.492035298   0.363219815  -0.881827643
| 46> *
| 47>
| 48>
| 49> $new_job
| 50>
| 51> # 6h2o.temelso.etal.dset.2h2o-orca.engrad-mp2.augccpvtz-0.to.49
| 52> ! MP2 aug-cc-pVTZ EnGrad TightSCF FrozenCore
| 53>
| 54> %pal
| 55>     nprocs 12
| 56> end
| 57>
| 58> %maxcore 8000
| 59>
| 60> %scf
| 61>     ConvForced true
| 62> end
| 63>
| 64> *xyz 0 1
| 65> O  -1.803922359  -0.406709497   0.606808903
| 66> H  -1.613722359  -0.531709497  -0.338991097
| 67> H  -1.910622359   0.569990503   0.641408903
| 68> O   1.805477641   0.343390503  -0.622591097
| 69> H   1.915477641   1.202090503  -0.182291097
| 70> H   1.584177641  -0.235209497   0.130408903
| 71> *
| 72>
| 73>
| 74> $new_job
| 75>
| 76> # 6h2o.temelso.etal.dset.2h2o-orca.engrad-mp2.augccpvtz-0.to.49
| 77> ! MP2 aug-cc-pVTZ EnGrad TightSCF FrozenCore
| 78>
| 79> %pal
| 80>     nprocs 12
| 81> end
| 82>
| 83> %maxcore 8000
| 84>
| 85> %scf
| 86>     ConvForced true
| 87> end
| 88>
| 89> *xyz 0 1
| 90> O  -1.164555060   0.076348169  -0.581038400
| 91> H  -0.974355060  -0.048651831  -1.526838400
| 92> H  -1.271255060   1.053048169  -0.546438400
| 93> O   1.209344940  -0.083251831   0.615461600
| 94> H   0.287044940  -0.124851831   0.234861600
| 95> H   1.247544940  -0.769951831   1.291961600
| 96> *
| 97>
| 98>
| 99> $new_job
|100>
|101> # 6h2o.temelso.etal.dset.2h2o-orca.engrad-mp2.augccpvtz-0.to.49
|102> ! MP2 aug-cc-pVTZ EnGrad TightSCF FrozenCore
|103>
|104> %pal
|105>     nprocs 12
|106> end
|107>
|108> %maxcore 8000
|109>
|110> %scf
|111>     ConvForced true
|112> end
|113>
|114> *xyz 0 1
|115> O  -1.438860659  -1.292765705  -0.488964812
|116> H  -1.248660659  -1.417765705  -1.434764812
|117> H  -1.545560659  -0.316065705  -0.454364812
|118> O   1.424639341   1.265934295   0.478335188
|119> H   1.733239341   1.796934295   1.222735188
|120> H   1.286739341   0.362834295   0.835135188
|121> *
|122>
|123>
|124> $new_job
|125>
|126> # 6h2o.temelso.etal.dset.2h2o-orca.engrad-mp2.augccpvtz-0.to.49
|127> ! MP2 aug-cc-pVTZ EnGrad TightSCF FrozenCore
|128>
|129> %pal
|130>     nprocs 12
|131> end
|132>
|133> %maxcore 8000
|134>
|135> %scf
|136>     ConvForced true
|137> end
|138>
|139> *xyz 0 1
|140> O  -0.504087417   0.932676779   1.080907354
|141> H  -0.242087417   0.639776779   0.190407354
|142> H   0.346012583   1.072476779   1.536207354
|143> O   0.386512583  -0.915423221  -1.021392646
|144> H   0.448712583  -1.002623221  -1.980192646
|145> H   1.313812583  -0.983523221  -0.691192646
|146> *
|147>
|148>
|149> $new_job
|150>
|151> # 6h2o.temelso.etal.dset.2h2o-orca.engrad-mp2.augccpvtz-0.to.49
|152> ! MP2 aug-cc-pVTZ EnGrad TightSCF FrozenCore
|153>
|154> %pal
|155>     nprocs 12
|156> end
|157>
|158> %maxcore 8000
|159>
|160> %scf
|161>     ConvForced true
|162> end
|163>
|164> *xyz 0 1
|165> O  -1.683245074   0.996247468   0.389543899
|166> H  -1.421245074   0.703347468  -0.500956101
|167> H  -0.833145074   1.136047468   0.844843899
|168> O   1.627254926  -1.003352532  -0.431956101
|169> H   1.737254926  -0.144652532   0.008343899
|170> H   1.405954926  -1.581952532   0.321043899
|171> *
|172>
|173>
|174> $new_job
|175>
|176> # 6h2o.temelso.etal.dset.2h2o-orca.engrad-mp2.augccpvtz-0.to.49
|177> ! MP2 aug-cc-pVTZ EnGrad TightSCF FrozenCore
|178>
|179> %pal
|180>     nprocs 12
|181> end
|182>
|183> %maxcore 8000
|184>
|185> %scf
|186>     ConvForced true
|187> end
|188>
|189> *xyz 0 1
|190> O  -1.043877775   1.479305134  -0.798303403
|191> H  -0.781877775   1.186405134  -1.688803403
|192> H  -0.193777775   1.619105134  -0.343003403
|193> O   1.031122225  -1.429994866   0.806096597
|194> H   0.108822225  -1.471594866   0.425496597
|195> H   1.069322225  -2.116694866   1.482596597
|196> *
|197>
|198>
|199> $new_job
|200>
|201> # 6h2o.temelso.etal.dset.2h2o-orca.engrad-mp2.augccpvtz-0.to.49
|202> ! MP2 aug-cc-pVTZ EnGrad TightSCF FrozenCore
|203>
|204> %pal
|205>     nprocs 12
|206> end
|207>
|208> %maxcore 8000
|209>
|210> %scf
|211>     ConvForced true
|212> end
|213>
|214> *xyz 0 1
|215> O  -1.318183374   0.110191260  -0.706229815
|216> H  -1.056183374  -0.182708740  -1.596729815
|217> H  -0.468083374   0.249991260  -0.250929815
|218> O   1.246416626  -0.080808740   0.668970185
|219> H   1.555016626   0.450191260   1.413370185
|220> H   1.108516626  -0.983908740   1.025770185
|221> *
|222>
|223>
|224> $new_job
|225>
|226> # 6h2o.temelso.etal.dset.2h2o-orca.engrad-mp2.augccpvtz-0.to.49
|227> ! MP2 aug-cc-pVTZ EnGrad TightSCF FrozenCore
|228>
|229> %pal
|230>     nprocs 12
|231> end
|232>
|233> %maxcore 8000
|234>
|235> %scf
|236>     ConvForced true
|237> end
|238>
|239> *xyz 0 1
|240> O  -1.234515621   0.072259008  -0.656196181
|241> H  -1.172315621  -0.014940992  -1.614996181
|242> H  -0.307215621   0.004159008  -0.325996181
|243> O   1.185384379  -0.079240992   0.624603819
|244> H   1.295384379   0.779459008   1.064903819
|245> H   0.964084379  -0.657840992   1.377603819
|246> *
|247>
|248>
|249> $new_job
|250>
|251> # 6h2o.temelso.etal.dset.2h2o-orca.engrad-mp2.augccpvtz-0.to.49
|252> ! MP2 aug-cc-pVTZ EnGrad TightSCF FrozenCore
|253>
|254> %pal
|255>     nprocs 12
|256> end
|257>
|258> %maxcore 8000
|259>
|260> %scf
|261>     ConvForced true
|262> end
|263>
|264> *xyz 0 1
|265> O  -0.595148322   0.555316674  -1.844043484
|266> H  -0.532948322   0.468116674  -2.802843484
|267> H   0.332151678   0.487216674  -1.513843484
|268> O   0.589251678  -0.505883326   1.862656516
|269> H  -0.333048322  -0.547483326   1.482056516
|270> H   0.627451678  -1.192583326   2.539156516
|271> *
|272>
|273>
|274> $new_job
|275>
|276> # 6h2o.temelso.etal.dset.2h2o-orca.engrad-mp2.augccpvtz-0.to.49
|277> ! MP2 aug-cc-pVTZ EnGrad TightSCF FrozenCore
|278>
|279> %pal
|280>     nprocs 12
|281> end
|282>
|283> %maxcore 8000
|284>
|285> %scf
|286>     ConvForced true
|287> end
|288>
|289> *xyz 0 1
|290> O  -0.869453921  -0.813797200  -1.751969896
|291> H  -0.807253921  -0.900997200  -2.710769896
|292> H   0.057846079  -0.881897200  -1.421769896
|293> O   0.804546079   0.843302800   1.725530104
|294> H   1.113146079   1.374302800   2.469930104
|295> H   0.666646079  -0.059797200   2.082330104
|296> *
|297>
|298>
|299> $new_job
|300>
|301> # 6h2o.temelso.etal.dset.2h2o-orca.engrad-mp2.augccpvtz-0.to.49
|302> ! MP2 aug-cc-pVTZ EnGrad TightSCF FrozenCore
|303>
|304> %pal
|305>     nprocs 12
|306> end
|307>
|308> %maxcore 8000
|309>
|310> %scf
|311>     ConvForced true
|312> end
|313>
|314> *xyz 0 1
|315> O   0.645594021   0.467387362  -1.254606938
|316> H   0.755594021   1.326087362  -0.814306938
|317> H   0.424294021  -0.111212638  -0.501606938
|318> O  -0.589905979  -0.442312638   1.171293062
|319> H  -1.512205979  -0.483912638   0.790693062
|320> H  -0.551705979  -1.129012638   1.847793062
|321> *
|322>
|323>
|324> $new_job
|325>
|326> # 6h2o.temelso.etal.dset.2h2o-orca.engrad-mp2.augccpvtz-0.to.49
|327> ! MP2 aug-cc-pVTZ EnGrad TightSCF FrozenCore
|328>
|329> %pal
|330>     nprocs 12
|331> end
|332>
|333> %maxcore 8000
|334>
|335> %scf
|336>     ConvForced true
|337> end
|338>
|339> *xyz 0 1
|340> O   0.371288422  -0.901726512  -1.162533350
|341> H   0.481288422  -0.043026512  -0.722233350
|342> H   0.149988422  -1.480326512  -0.409533350
|343> O  -0.374611578   0.906873488   1.034166650
|344> H  -0.066011578   1.437873488   1.778566650
|345> H  -0.512511578   0.003773488   1.390966650
|346> *
|347>
|348>
|349> $new_job
|350>
|351> # 6h2o.temelso.etal.dset.2h2o-orca.engrad-mp2.augccpvtz-0.to.49
|352> ! MP2 aug-cc-pVTZ EnGrad TightSCF FrozenCore
|353>
|354> %pal
|355>     nprocs 12
|356> end
|357>
|358> %maxcore 8000
|359>
|360> %scf
|361>     ConvForced true
|362> end
|363>
|364> *xyz 0 1
|365> O  -0.224844279  -1.328368846   0.075519347
|366> H  -1.147144279  -1.369968846  -0.305080653
|367> H  -0.186644279  -2.015068846   0.752019347
|368> O   0.264755721   1.389931154  -0.153680653
|369> H   0.573355721   1.920931154   0.590719347
|370> H   0.126855721   0.486831154   0.203119347
|371> *
|372>
|373>
|374> $new_job
|375>
|376> # 6h2o.temelso.etal.dset.2h2o-orca.engrad-mp2.augccpvtz-0.to.49
|377> ! MP2 aug-cc-pVTZ EnGrad TightSCF FrozenCore
|378>
|379> %pal
|380>     nprocs 12
|381> end
|382>
|383> %maxcore 8000
|384>
|385> %scf
|386>     ConvForced true
|387> end
|388>
|389> *xyz 0 1
|390> O   0.786121569  -1.167508509  -0.070872832
|391> H   1.638221569  -0.806908509   0.270127168
|392> H   1.025821569  -1.782208509  -0.774772832
|393> O  -0.824578431   1.245591491   0.091427168
|394> H  -0.375778431   0.450091491  -0.248072832
|395> H  -1.677778431   0.899491491   0.426427168
|396> *
|397>
|398>
|399> $new_job
|400>
|849> $new_job
|850>
|851> # 6h2o.temelso.etal.dset.2h2o-orca.engrad-mp2.augccpvtz-0.to.49
|852> ! MP2 aug-cc-pVTZ EnGrad TightSCF FrozenCore
|853>
|854> %pal
|855>     nprocs 12
|856> end
|857>
|858> %maxcore 8000
|859>
|860> %scf
|861>     ConvForced true
|862> end
|863>
|864> *xyz 0 1
|865> O  -1.280070175  -1.379175526   0.613499427
|866> H  -1.922370175  -1.883975526   0.100299427
|867> H  -0.404770175  -1.565175526   0.186699427
|868> O   1.318129825   1.379024474  -0.544300573
|869> H   1.287729825   1.996724474  -1.285200573
|870> H   0.435229825   1.454824474  -0.100300573
|871> *
|872>
|873>
|874> $new_job
|875>
|876> # 6h2o.temelso.etal.dset.2h2o-orca.engrad-mp2.augccpvtz-0.to.49
|877> ! MP2 aug-cc-pVTZ EnGrad TightSCF FrozenCore
|878>
|879> %pal
|880>     nprocs 12
|881> end
|882>
|883> %maxcore 8000
|884>
|885> %scf
|886>     ConvForced true
|887> end
|888>
|889> *xyz 0 1
|890> O  -1.203910382   0.127370485  -0.788082553
|891> H  -0.420510382  -0.130029515  -0.257782553
|892> H  -1.048110382   1.069170485  -0.977582553
|893> O   1.095689618  -0.198029515   0.785117447
|894> H   1.903889618  -0.579829515   0.421617447
|895> H   1.282689618   0.762370485   0.860817447
|896> *
|897>
|898>
|899> $new_job
|900>
|901> # 6h2o.temelso.etal.dset.2h2o-orca.engrad-mp2.augccpvtz-0.to.49
|902> ! MP2 aug-cc-pVTZ EnGrad TightSCF FrozenCore
|903>
|904> %pal
|905>     nprocs 12
|906> end
|907>
|908> %maxcore 8000
|909>
|910> %scf
|911>     ConvForced true
|912> end
|913>
|914> *xyz 0 1
|915> O  -1.248847298  -1.266377923  -0.805129114
|916> H  -0.465447298  -1.523777923  -0.274829114
|917> H  -1.093047298  -0.324577923  -0.994629114
|918> O   1.240852702   1.182622077   0.768070886
|919> H   0.437352702   1.466022077   0.283170886
|920> H   1.248052702   1.711922077   1.574570886
|921> *
|922>
|923>
|924> $new_job
|925>
|926> # 6h2o.temelso.etal.dset.2h2o-orca.engrad-mp2.augccpvtz-0.to.49
|927> ! MP2 aug-cc-pVTZ EnGrad TightSCF FrozenCore
|928>
|929> %pal
|930>     nprocs 12
|931> end
|932>
|933> %maxcore 8000
|934>
|935> %scf
|936>     ConvForced true
|937> end
|938>
|939> *xyz 0 1
|940> O   1.099617786  -1.430757358  -0.648380567
|941> H   1.883017786  -1.688157358  -0.118080567
|942> H   1.255417786  -0.488957358  -0.837880567
|943> O  -1.132782214   1.429442642   0.577419433
|944> H  -1.316782214   0.457142642   0.606319433
|945> H  -1.295182214   1.740842642   1.476119433
|946> *
|947>
|948>
|949> $new_job
|950>
|951> # 6h2o.temelso.etal.dset.2h2o-orca.engrad-mp2.augccpvtz-0.to.49
|952> ! MP2 aug-cc-pVTZ EnGrad TightSCF FrozenCore
|953>
|954> %pal
|955>     nprocs 12
|956> end
|957>
|958> %maxcore 8000
|959>
|960> %scf
|961>     ConvForced true
|962> end
|963>
|964> *xyz 0 1
|965> O  -0.099674493  -1.499493577  -0.032828001
|966> H   0.683725507  -1.756893577   0.497471999
|967> H   0.056125507  -0.557693577  -0.222328001
|968> O   0.098225507   1.422406423   0.030371999
|969> H   0.067825507   2.040106423  -0.710528001
|970> H  -0.784674493   1.498206423   0.474371999
|971> *
|972>
|973>
|974> $new_job
|975>
|976> # 6h2o.temelso.etal.dset.2h2o-orca.engrad-mp2.augccpvtz-0.to.49
|977> ! MP2 aug-cc-pVTZ EnGrad TightSCF FrozenCore
|978>
|979> %pal
|980>     nprocs 12
|981> end
|982>
|983> %maxcore 8000
|984>
|985> %scf
|986>     ConvForced true
|987> end
|988>
|989> *xyz 0 1
|990> O  -0.100613769  -1.426118411  -0.000945477
|991> H   0.707586231  -1.807918411  -0.364445477
|992> H   0.086386231  -0.465718411   0.074754523
|993> O   0.089486231   1.348281589  -0.000945477
|994> H  -0.714013769   1.631681589  -0.485845477
|995> H   0.096686231   1.877581589   0.805554523
|996> *
|997>
|998>
|999> $new_job
|1000>
|1001> # 6h2o.temelso.etal.dset.2h2o-orca.engrad-mp2.augccpvtz-0.to.49
|1002> ! MP2 aug-cc-pVTZ EnGrad TightSCF FrozenCore
|1003>
|1004> %pal
|1005>     nprocs 12
|1006> end
|1007>
|1008> %maxcore 8000
|1009>
|1010> %scf
|1011>     ConvForced true
|1012> end
|1013>
|1014> *xyz 0 1
|1015> O   2.247851315  -1.590497847   0.155803069
|1016> H   3.056051315  -1.972297847  -0.207696931
|1017> H   2.434851315  -0.630097847   0.231503069
|1018> O  -2.284148685   1.595102153  -0.191596931
|1019> H  -2.468148685   0.622802153  -0.162696931
|1020> H  -2.446548685   1.906502153   0.707103069
|1021> *
|1022>
|1023>
|1024> $new_job
|1025>
|1026> # 6h2o.temelso.etal.dset.2h2o-orca.engrad-mp2.augccpvtz-0.to.49
|1027> ! MP2 aug-cc-pVTZ EnGrad TightSCF FrozenCore
|1028>
|1029> %pal
|1030>     nprocs 12
|1031> end
|1032>
|1033> %maxcore 8000
|1034>
|1035> %scf
|1036>     ConvForced true
|1037> end
|1038>
|1039> *xyz 0 1
|1040> O   1.048559036  -1.659234066   0.771355635
|1041> H   1.856759036  -2.041034066   0.407855635
|1042> H   1.235559036  -0.698834066   0.847055635
|1043> O  -1.053140964   1.588065934  -0.738644365
|1044> H  -1.083540964   2.205765934  -1.479544365
|1045> H  -1.936040964   1.663865934  -0.294644365
|1046> *
|1047>
|1048>
|1049> $new_job
|1050>
|1051> # 6h2o.temelso.etal.dset.2h2o-orca.engrad-mp2.augccpvtz-0.to.49
|1052> ! MP2 aug-cc-pVTZ EnGrad TightSCF FrozenCore
|1053>
|1054> %pal
|1055>     nprocs 12
|1056> end
|1057>
|1058> %maxcore 8000
|1059>
|1060> %scf
|1061>     ConvForced true
|1062> end
|1063>
|1064> *xyz 0 1
|1065> O   2.393014399  -0.209846255   0.138756509
|1066> H   1.589514399   0.073553745  -0.346143491
|1067> H   2.400214399   0.319453745   0.945256509
|1068> O  -2.329085601   0.201353745  -0.208643491
|1069> H  -2.513085601  -0.770946255  -0.179743491
|1070> H  -2.491485601   0.512753745   0.690056509
|1071> *
|1072>
|1073>
|1074> $new_job
|1075>
|1076> # 6h2o.temelso.etal.dset.2h2o-orca.engrad-mp2.augccpvtz-0.to.49
|1077> ! MP2 aug-cc-pVTZ EnGrad TightSCF FrozenCore
|1078>
|1079> %pal
|1080>     nprocs 12
|1081> end
|1082>
|1083> %maxcore 8000
|1084>
|1085> %scf
|1086>     ConvForced true
|1087> end
|1088>
|1089> *xyz 0 1
|1090> O   1.193722120  -0.278582474   0.754309074
|1091> H   0.390222120   0.004817526   0.269409074
|1092> H   1.200922120   0.250717526   1.560809074
|1093> O  -1.098077880   0.194317526  -0.755690926
|1094> H  -1.128477880   0.812017526  -1.496590926
|1095> H  -1.980977880   0.270117526  -0.311690926
|1096> *
|1097>
|1098>
|1099> $new_job
|1100>
|1101> # 6h2o.temelso.etal.dset.2h2o-orca.engrad-mp2.augccpvtz-0.to.49
|1102> ! MP2 aug-cc-pVTZ EnGrad TightSCF FrozenCore
|1103>
|1104> %pal
|1105>     nprocs 12
|1106> end
|1107>
|1108> %maxcore 8000
|1109>
|1110> %scf
|1111>     ConvForced true
|1112> end
|1113>
|1114> *xyz 0 1
|1115> O  -1.179912795  -0.031761910   0.563657621
|1116> H  -1.363912795  -1.004061910   0.592557621
|1117> H  -1.342312795   0.279638090   1.462357621
|1118> O   1.250387205   0.029938090  -0.598942379
|1119> H   1.219987205   0.647638090  -1.339842379
|1120> H   0.367487205   0.105738090  -0.154942379
|1121> *
|1122>
|1123>
|1124> $new_job
|1125>
|1126> # 6h2o.temelso.etal.dset.2h2o-orca.engrad-mp2.augccpvtz-0.to.49
|1127> ! MP2 aug-cc-pVTZ EnGrad TightSCF FrozenCore
|1128>
|1129> %pal
|1130>     nprocs 12
|1131> end
|1132>
|1133> %maxcore 8000
|1134>
|1135> %scf
|1136>     ConvForced true
|1137> end
|1138>
|1139> *xyz 0 1
|1140> O  -0.016347222   1.350307156   0.321744322
|1141> H   0.874752778   1.615707156   0.579944322
|1142> H   0.076852778   0.414307156   0.011344322
|1143> O   0.014752778  -1.278092844  -0.299455678
|1144> H  -0.165147222  -1.605392844  -1.189155678
|1145> H  -0.761147222  -1.570992844   0.244044322
|1146> *
|1147>
|1148>
|1149> $new_job
|1150>
|1151> # 6h2o.temelso.etal.dset.2h2o-orca.engrad-mp2.augccpvtz-0.to.49
|1152> ! MP2 aug-cc-pVTZ EnGrad TightSCF FrozenCore
|1153>
|1154> %pal
|1155>     nprocs 12
|1156> end
|1157>
|1158> %maxcore 8000
|1159>
|1160> %scf
|1161>     ConvForced true
|1162> end
|1163>
|1164> *xyz 0 1
|1165> O   1.041510790   1.555669495  -0.495000976
|1166> H   1.932610790   1.821069495  -0.236800976
|1167> H   1.134710790   0.619669495  -0.805400976
|1168> O  -1.045589210  -1.562830505   0.501099024
|1169> H  -1.113589210  -0.696830505   0.939899024
|1170> H  -1.888989210  -1.630230505   0.005499024
|1171> *
|1172>
|1173>
|1174> $new_job
|1175>
|1176> # 6h2o.temelso.etal.dset.2h2o-orca.engrad-mp2.augccpvtz-0.to.49
|1177> ! MP2 aug-cc-pVTZ EnGrad TightSCF FrozenCore
|1178>
|1179> %pal
|1180>     nprocs 12
|1181> end
|1182>
|1183> %maxcore 8000
|1184>
|1185> %scf
|1186>     ConvForced true
|1187> end
|1188>
|1189> *xyz 0 1
|1190> O   2.221194728   1.466958440   0.245023543
|1191> H   3.112294728   1.732358440   0.503223543
|1192> H   2.314394728   0.530958440  -0.065376457
|1193> O  -2.223505272  -1.462941560  -0.264576457
|1194> H  -3.065905272  -1.834841560   0.024023543
|1195> H  -2.324105272  -0.492241560  -0.151476457
|1196> *
|1197>
|1198>
|1199> $new_job
|1200>
|1201> # 6h2o.temelso.etal.dset.2h2o-orca.engrad-mp2.augccpvtz-0.to.49
|1202> ! MP2 aug-cc-pVTZ EnGrad TightSCF FrozenCore
|1203>
|1204> %pal
|1205>     nprocs 12
|1206> end
|1207>
|1208> %maxcore 8000
|1209>
|1210> %scf
|1211>     ConvForced true
|1212> end
|1213>
|1214> *xyz 0 1
|1215> O   2.148704676   0.101969884  -0.000243570
|1216> H   3.039804676   0.367369884   0.257956430
|1217> H   2.241904676  -0.834030116  -0.310643570
|1218> O  -2.254995324  -0.105830116   0.011656430
|1219> H  -2.135895324   0.531969884  -0.702943570
|1220> H  -1.458495324  -0.004030116   0.574456430
|1221> *
|1222>
|1223>
|1224> $new_job
|1225>
|1226> # 6h2o.temelso.etal.dset.2h2o-orca.engrad-mp2.augccpvtz-0.to.49
|1227> ! MP2 aug-cc-pVTZ EnGrad TightSCF FrozenCore
|1228>
|1229> %pal
|1230>     nprocs 12
|1231> end
|1232>
|1233> %maxcore 8000
|1234>
|1235> %scf
|1236>     ConvForced true
|1237> end
|1238>
|1239> *xyz 0 1
|1240> O   1.013436498   0.129075175  -0.822624665
|1241> H   1.904536498   0.394475175  -0.564424665
|1242> H   1.106636498  -0.806924825  -1.133024665
|1243> O  -1.119363502  -0.129024825   0.806775335
|1244> H  -1.042163502   0.345375175   1.643375335
|1245> H  -0.287463502   0.066275175   0.305675335
|1246> *
|1247>
|1248>                          ****END OF INPUT****
 Total Charge           Charge          ....    0
 Multiplicity           Mult            ....    1
 Number of Electrons    NEL             ....   20
MP2 TOTAL ENERGY:     -152.660896119 Eh
FINAL SINGLE POINT ENERGY      -152.660896119328
MP2 TOTAL ENERGY:     -152.662991630 Eh
FINAL SINGLE POINT ENERGY      -152.662991629676
MP2 TOTAL ENERGY:     -152.659113214 Eh
FINAL SINGLE POINT ENERGY      -152.659113214432
MP2 TOTAL ENERGY:     -152.662885402 Eh
FINAL SINGLE POINT ENERGY      -152.662885402070
MP2 TOTAL ENERGY:     -152.659408799 Eh
FINAL SINGLE POINT ENERGY      -152.659408798871
MP2 TOTAL ENERGY:     -152.661672312 Eh
FINAL SINGLE POINT ENERGY      -152.661672311771
FINAL SINGLE POINT ENERGY      -152.657761054733
FINAL SINGLE POINT ENERGY      -152.658806247643
FINAL SINGLE POINT ENERGY      -152.665102054462
FINAL SINGLE POINT ENERGY      -152.664855501322
FINAL SINGLE POINT ENERGY      -152.657275958158
FINAL SINGLE POINT ENERGY      -152.657523636254
FINAL SINGLE POINT ENERGY      -152.658061323928
FINAL SINGLE POINT ENERGY      -152.663836903833
MP2 TOTAL ENERGY:     -152.663754148 Eh
FINAL SINGLE POINT ENERGY      -152.663754148407
MP2 TOTAL ENERGY:     -152.663798394 Eh
FINAL SINGLE POINT ENERGY      -152.663798393717
MP2 TOTAL ENERGY:     -152.659589698 Eh
FINAL SINGLE POINT ENERGY      -152.659589698226
MP2 TOTAL ENERGY:     -152.657380207 Eh
FINAL SINGLE POINT ENERGY      -152.657380206789
MP2 TOTAL ENERGY:     -152.658702374 Eh
FINAL SINGLE POINT ENERGY      -152.658702374363

CARTESIAN COORDINATES (ANGSTROEM)
---------------------------------
  O      1.013436    0.129075   -0.822625
  H      1.904536    0.394475   -0.564425
  H      1.106636   -0.806925   -1.133025
  O     -1.119364   -0.129025    0.806775
  H     -1.042164    0.345375    1.643375
  H     -0.287464    0.066275    0.305675

 Multiplicity           Mult            ....    1
 Number of Electrons    NEL             ....   20
 Basis Dimension        Dim             ....  184

ORBITAL ENERGIES
----------------

  NO   OCC          E(Eh)            E(eV)
   0   2.0000     -20.601162      -560.5861
   1   2.0000     -20.526627      -558.5579
   2   2.0000      -1.380141       -37.5555
   3   2.0000      -1.304852       -35.5068
   4   2.0000      -0.741947       -20.1894
   5   2.0000      -0.691677       -18.8215
   6   2.0000      -0.610850       -16.6221
   7   2.0000      -0.559248       -15.2179
   8   2.0000      -0.520977       -14.1765
   9   2.0000      -0.470098       -12.7920
  10   0.0000       0.019792         0.5386
  11   0.0000       0.043506         1.1839
  12   0.0000       0.049056         1.3349
  13   0.0000       0.077617         2.1121
  14   0.0000       0.120987         3.2922

MULLIKEN ATOMIC CHARGES
-----------------------
   0 O :   -0.370390
   1 H :    0.203092
   2 H :    0.232670
   3 O :   -0.508560
   4 H :    0.193654
   5 H :    0.249534
Sum of atomic charges:    0.0000000

LOEWDIN ATOMIC CHARGES
----------------------
   0 O :    1.087387
   1 H :   -0.453689
   2 H :   -0.396318
   3 O :    1.013546
   4 H :   -0.517140
   5 H :   -0.733786

  Mayer bond orders larger than 0.100000
B(  0-O ,  1-H ) :   0.9714 B(  0-O ,  2-H ) :   0.9414 B(  3-O ,  4-H ) :   0.9829
B(  3-O ,  5-H ) :   0.8761

MP2 TOTAL ENERGY:     -152.662965367 Eh
FINAL SINGLE POINT ENERGY      -152.662965367107

DIPOLE MOMENT
-------------
                                X             Y             Z
Electronic contribution:     -0.15646       0.01485      -0.27097
Nuclear contribution   :      1.57599      -0.00075       0.23581
                        -----------------------------------------
Total Dipole Moment    :      1.41953       0.01410      -0.03516
                        -----------------------------------------
Magnitude (a.u.)       :      1.42003
Magnitude (Debye)      :      3.60944

Rotational constants in cm-1:     7.489991     0.248491     0.243297
Rotational constants in MHz : 224544.294816  7449.565988  7293.860175

                             ****ORCA TERMINATED NORMALLY****
TOTAL RUN TIME: 0 days 0 hours 17 minutes 50 seconds 919 msec
