                         Program Version 4.2.0 -  RELEASE  -
|  1> # 6h2o.temelso.etal.dset.3h2o-orca.engrad-mp2.augccpvtz-0.to.49
|  2> ! MP2 aug-cc-pVTZ EnGrad TightSCF FrozenCore
|  3>
|  4> %pal
|  5>     nprocs 12
|  6> end
|  7>
|  8> %maxcore 8000
|  9>
| 10> %scf
| 11>     ConvForced true
| 12> end
| 13>
| 14> *xyz 0 1
| 15> O  -0.536882092  -1.227231710   1.009530716
| 16> H  -0.346682092  -1.352231710   0.063730716
| 17> H  -0.643582092  -0.250531710   1.044130716
| 18> O  -0.237982092   1.522468290   0.601630716
| 19> H   0.024017908   1.229568290  -0.288869284
| 20> H   0.612117908   1.662268290   1.056930716
| 21> O   0.652617908  -0.325631710  -1.500669284
| 22> H   0.714817908  -0.412831710  -2.459469284
| 23> H   1.579917908  -0.393731710  -1.170469284
| 24> *
| 25>
| 26>
| 27> $new_job
| 28>
| 29> # 6h2o.temelso.etal.dset.3h2o-orca.engrad-mp2.augccpvtz-0.to.49
| 30> ! MP2 aug-cc-pVTZ EnGrad TightSCF FrozenCore
| 31>
| 32> %pal
| 33>     nprocs 12
| 34> end
| 35>
| 36> %maxcore 8000
| 37>
| 38> %scf
| 39>     ConvForced true
| 40> end
| 41>
| 42> *xyz 0 1
| 43> O  -1.322987196  -1.184851251   0.548621746
| 44> H  -1.132787196  -1.309851251  -0.397178254
| 45> H  -1.429687196  -0.208151251   0.583221746
| 46> O  -1.024087196   1.564848749   0.140721746
| 47> H  -0.762087196   1.271948749  -0.749778254
| 48> H  -0.173987196   1.704648749   0.596021746
| 49> O   2.286412804  -0.434751251  -0.680778254
| 50> H   2.396412804   0.423948749  -0.240478254
| 51> H   2.065112804  -1.013351251   0.072221746
| 52> *
| 53>
| 54>
| 55> $new_job
| 56>
| 57> # 6h2o.temelso.etal.dset.3h2o-orca.engrad-mp2.augccpvtz-0.to.49
| 58> ! MP2 aug-cc-pVTZ EnGrad TightSCF FrozenCore
| 59>
| 60> %pal
| 61>     nprocs 12
| 62> end
| 63>
| 64> %maxcore 8000
| 65>
| 66> %scf
| 67>     ConvForced true
| 68> end
| 69>
| 70> *xyz 0 1
| 71> O  -0.896742330  -0.862812807  -0.243276455
| 72> H  -0.706542330  -0.987812807  -1.189076455
| 73> H  -1.003442330   0.113887193  -0.208676455
| 74> O  -0.597842330   1.886887193  -0.651176455
| 75> H  -0.335842330   1.593987193  -1.541676455
| 76> H   0.252257670   2.026687193  -0.195876455
| 77> O   1.477157670  -1.022412807   0.953223545
| 78> H   0.554857670  -1.064012807   0.572623545
| 79> H   1.515357670  -1.709112807   1.629723545
| 80> *
| 81>
| 82>
| 83> $new_job
| 84>
| 85> # 6h2o.temelso.etal.dset.3h2o-orca.engrad-mp2.augccpvtz-0.to.49
| 86> ! MP2 aug-cc-pVTZ EnGrad TightSCF FrozenCore
| 87>
| 88> %pal
| 89>     nprocs 12
| 90> end
| 91>
| 92> %maxcore 8000
| 93>
| 94> %scf
| 95>     ConvForced true
| 96> end
| 97>
| 98> *xyz 0 1
| 99> O  -1.079612729  -1.775555390  -0.181894063
|100> H  -0.889412729  -1.900555390  -1.127694063
|101> H  -1.186312729  -0.798855390  -0.147294063
|102> O  -0.780712729   0.974144610  -0.589794063
|103> H  -0.518712729   0.681244610  -1.480294063
|104> H   0.069387271   1.113944610  -0.134494063
|105> O   1.783887271   0.783144610   0.785405937
|106> H   2.092487271   1.314144610   1.529805937
|107> H   1.645987271  -0.119955390   1.142205937
|108> *
|109>
|110>
|111> $new_job
|112>
|113> # 6h2o.temelso.etal.dset.3h2o-orca.engrad-mp2.augccpvtz-0.to.49
|114> ! MP2 aug-cc-pVTZ EnGrad TightSCF FrozenCore
|115>
|116> %pal
|117>     nprocs 12
|118> end
|119>
|120> %maxcore 8000
|121>
|122> %scf
|123>     ConvForced true
|124> end
|125>
|126> *xyz 0 1
|127> O  -1.617567561  -0.568776892   1.252995026
|128> H  -1.427367561  -0.693776892   0.307195026
|129> H  -1.724267561   0.407923108   1.287595026
|130> O  -0.428067561   0.332823108  -1.257204974
|131> H  -0.365867561   0.245623108  -2.216004974
|132> H   0.499232439   0.264723108  -0.927004974
|133> O   1.991832439   0.181323108   0.023595026
|134> H   2.101832439   1.040023108   0.463895026
|135> H   1.770532439  -0.397276892   0.776595026
|136> *
|137>
|138>
|139> $new_job
|140>
|141> # 6h2o.temelso.etal.dset.3h2o-orca.engrad-mp2.augccpvtz-0.to.49
|142> ! MP2 aug-cc-pVTZ EnGrad TightSCF FrozenCore
|143>
|144> %pal
|145>     nprocs 12
|146> end
|147>
|148> %maxcore 8000
|149>
|150> %scf
|151>     ConvForced true
|152> end
|153>
|154> *xyz 0 1
|155> O  -1.191322695  -0.246738447   0.461096824
|156> H  -1.001122695  -0.371738447  -0.484703176
|157> H  -1.298022695   0.729961553   0.495696824
|158> O  -0.001822695   0.654861553  -2.049103176
|159> H   0.060377305   0.567661553  -3.007903176
|160> H   0.925477305   0.586761553  -1.718903176
|161> O   1.182577305  -0.406338447   1.657596824
|162> H   0.260277305  -0.447938447   1.276996824
|163> H   1.220777305  -1.093038447   2.334096824
|164> *
|165>
|166>
|167> $new_job
|168>
|169> # 6h2o.temelso.etal.dset.3h2o-orca.engrad-mp2.augccpvtz-0.to.49
|170> ! MP2 aug-cc-pVTZ EnGrad TightSCF FrozenCore
|171>
|172> %pal
|173>     nprocs 12
|174> end
|175>
|176> %maxcore 8000
|177>
|178> %scf
|179>     ConvForced true
|180> end
|181>
|182> *xyz 0 1
|183> O  -1.374193094  -1.159481030   0.522479216
|184> H  -1.183993094  -1.284481030  -0.423320784
|185> H  -1.480893094  -0.182781030   0.557079216
|186> O  -0.184693094  -0.257881030  -1.987720784
|187> H  -0.122493094  -0.345081030  -2.946520784
|188> H   0.742606906  -0.325981030  -1.657520784
|189> O   1.489306906   1.399218970   1.489779216
|190> H   1.797906906   1.930218970   2.234179216
|191> H   1.351406906   0.496118970   1.846579216
|192> *
|193>
|194>
|195> $new_job
|196>
|197> # 6h2o.temelso.etal.dset.3h2o-orca.engrad-mp2.augccpvtz-0.to.49
|198> ! MP2 aug-cc-pVTZ EnGrad TightSCF FrozenCore
|199>
|200> %pal
|201>     nprocs 12
|202> end
|203>
|204> %maxcore 8000
|205>
|206> %scf
|207>     ConvForced true
|208> end
|209>
|210> *xyz 0 1
|211> O  -1.977427799  -0.204357988   0.000187855
|212> H  -1.787227799  -0.329357988  -0.945612145
|213> H  -2.084127799   0.772342012   0.034787855
|214> O   1.631972201   0.545742012  -1.229212145
|215> H   1.741972201   1.404442012  -0.788912145
|216> H   1.410672201  -0.032857988  -0.476212145
|217> O   0.396472201  -0.363957988   1.196687855
|218> H  -0.525827799  -0.405557988   0.816087855
|219> H   0.434672201  -1.050657988   1.873187855
|220> *
|221>
|222>
|223> $new_job
|224>
|225> # 6h2o.temelso.etal.dset.3h2o-orca.engrad-mp2.augccpvtz-0.to.49
|226> ! MP2 aug-cc-pVTZ EnGrad TightSCF FrozenCore
|227>
|228> %pal
|229>     nprocs 12
|230> end
|231>
|232> %maxcore 8000
|233>
|234> %scf
|235>     ConvForced true
|236> end
|237>
|238> *xyz 0 1
|239> O  -2.160298199  -1.117100571   0.061570247
|240> H  -1.970098199  -1.242100571  -0.884229753
|241> H  -2.266998199  -0.140400571   0.096170247
|242> O   1.449101801  -0.367000571  -1.167829753
|243> H   1.559101801   0.491699429  -0.727529753
|244> H   1.227801801  -0.945600571  -0.414829753
|245> O   0.703201801   1.441599429   1.028870247
|246> H   1.011801801   1.972599429   1.773270247
|247> H   0.565301801   0.538499429   1.385670247
|248> *
|249>
|250>
|251> $new_job
|252>
|253> # 6h2o.temelso.etal.dset.3h2o-orca.engrad-mp2.augccpvtz-0.to.49
|254> ! MP2 aug-cc-pVTZ EnGrad TightSCF FrozenCore
|255>
|256> %pal
|257>     nprocs 12
|258> end
|259>
|260> %maxcore 8000
|261>
|262> %scf
|263>     ConvForced true
|264> end
|265>
|266> *xyz 0 1
|267> O  -1.734053333  -0.795062127  -0.730327955
|268> H  -1.543853333  -0.920062127  -1.676127955
|269> H  -1.840753333   0.181637873  -0.695727955
|270> O   0.639846667  -0.954662127   0.466172045
|271> H  -0.282453333  -0.996262127   0.085572045
|272> H   0.678046667  -1.641362127   1.142672045
|273> O   1.129446667   1.763637873   0.236972045
|274> H   1.438046667   2.294637873   0.981372045
|275> H   0.991546667   0.860537873   0.593772045
|276> *
|277>
|278>
|279> $new_job
|280>
|281> # 6h2o.temelso.etal.dset.3h2o-orca.engrad-mp2.augccpvtz-0.to.49
|282> ! MP2 aug-cc-pVTZ EnGrad TightSCF FrozenCore
|283>
|284> %pal
|285>     nprocs 12
|286> end
|287>
|288> %maxcore 8000
|289>
|290> %scf
|291>     ConvForced true
|292> end
|293>
|294> *xyz 0 1
|295> O  -1.437482704   1.283094418   0.972185024
|296> H  -1.175482704   0.990194418   0.081685024
|297> H  -0.587382704   1.422894418   1.427485024
|298> O  -0.546882704  -0.565005582  -1.130114976
|299> H  -0.484682704  -0.652205582  -2.088914976
|300> H   0.380417296  -0.633105582  -0.799914976
|301> O   1.873017296  -0.716505582   0.150685024
|302> H   1.983017296   0.142194418   0.590985024
|303> H   1.651717296  -1.295105582   0.903685024
|304> *
|305>
|306>
|307> $new_job
|308>
|309> # 6h2o.temelso.etal.dset.3h2o-orca.engrad-mp2.augccpvtz-0.to.49
|310> ! MP2 aug-cc-pVTZ EnGrad TightSCF FrozenCore
|311>
|312> %pal
|313>     nprocs 12
|314> end
|315>
|316> %maxcore 8000
|317>
|318> %scf
|319>     ConvForced true
|320> end
|321>
|322> *xyz 0 1
|323> O  -1.011237838   1.605132862   0.180286822
|324> H  -0.749237838   1.312232862  -0.710213178
|325> H  -0.161137838   1.744932862   0.635586822
|326> O  -0.120637838  -0.242967138  -1.922013178
|327> H  -0.058437838  -0.330167138  -2.880813178
|328> H   0.806662162  -0.311067138  -1.591813178
|329> O   1.063762162  -1.304167138   1.784686822
|330> H   0.141462162  -1.345767138   1.404086822
|331> H   1.101962162  -1.990867138   2.461186822
|332> *
|333>
|334>
|335> $new_job
|336>
|337> # 6h2o.temelso.etal.dset.3h2o-orca.engrad-mp2.augccpvtz-0.to.49
|338> ! MP2 aug-cc-pVTZ EnGrad TightSCF FrozenCore
|339>
|340> %pal
|341>     nprocs 12
|342> end
|343>
|344> %maxcore 8000
|345>
|346> %scf
|347>     ConvForced true
|348> end
|349>
|350> *xyz 0 1
|351> O  -1.194108238   0.692390280   0.241669214
|352> H  -0.932108238   0.399490280  -0.648830786
|353> H  -0.344008238   0.832190280   0.696969214
|354> O  -0.303508238  -1.155709720  -1.860630786
|355> H  -0.241308238  -1.242909720  -2.819430786
|356> H   0.623791762  -1.223809720  -1.530430786
|357> O   1.370491762   0.501390280   1.616869214
|358> H   1.679091762   1.032390280   2.361269214
|359> H   1.232591762  -0.401709720   1.973669214
|360> *
|361>
|362>
|363> $new_job
|364>
|365> # 6h2o.temelso.etal.dset.3h2o-orca.engrad-mp2.augccpvtz-0.to.49
|366> ! MP2 aug-cc-pVTZ EnGrad TightSCF FrozenCore
|367>
|368> %pal
|369>     nprocs 12
|370> end
|371>
|372> %maxcore 8000
|373>
|374> %scf
|375>     ConvForced true
|376> end
|377>
|378> *xyz 0 1
|379> O  -1.797342942   1.647513321  -0.280622147
|380> H  -1.535342942   1.354613321  -1.171122147
|381> H  -0.947242942   1.787313321   0.174677853
|382> O   1.513157058  -0.352086679  -1.102122147
|383> H   1.623157058   0.506613321  -0.661822147
|384> H   1.291857058  -0.930686679  -0.349122147
|385> O   0.277657058  -1.261786679   1.323777853
|386> H  -0.644642942  -1.303386679   0.943177853
|387> H   0.315857058  -1.948486679   2.000277853
|388> *
|389>
|390>
|391> $new_job
|392>
|393> # 6h2o.temelso.etal.dset.3h2o-orca.engrad-mp2.augccpvtz-0.to.49
|394> ! MP2 aug-cc-pVTZ EnGrad TightSCF FrozenCore
|395>
|396> %pal
|397>     nprocs 12
|398> end
|399>
|400> %maxcore 8000
|999> H   2.504414933   0.286127992   0.715422911
|1000> H   3.675514933  -0.709672008   0.878922911
|1001> O  -2.569085067  -0.404272008   0.586522911
|1002> H  -1.891585067  -0.984172008   1.002322911
|1003> H  -3.331785067  -0.970272008   0.420522911
|1004> *
|1005>
|1006>
|1007> $new_job
|1008>
|1009> # 6h2o.temelso.etal.dset.3h2o-orca.engrad-mp2.augccpvtz-0.to.49
|1010> ! MP2 aug-cc-pVTZ EnGrad TightSCF FrozenCore
|1011>
|1012> %pal
|1013>     nprocs 12
|1014> end
|1015>
|1016> %maxcore 8000
|1017>
|1018> %scf
|1019>     ConvForced true
|1020> end
|1021>
|1022> *xyz 0 1
|1023> O  -0.301004268   1.290557527   0.302127871
|1024> H  -0.884804268   1.359457527  -0.503472129
|1025> H  -0.366804268   2.144357527   0.746727871
|1026> O  -1.558304268  -1.368442473   0.507727871
|1027> H  -1.114604268  -1.593042473  -0.330472129
|1028> H  -1.124204268  -0.534042473   0.759727871
|1029> O   1.850295732  -0.016142473  -0.822572129
|1030> H   1.231195732   0.555857527  -0.317072129
|1031> H   2.402295732  -0.439942473  -0.153572129
|1032> *
|1033>
|1034>
|1035> $new_job
|1036>
|1037> # 6h2o.temelso.etal.dset.3h2o-orca.engrad-mp2.augccpvtz-0.to.49
|1038> ! MP2 aug-cc-pVTZ EnGrad TightSCF FrozenCore
|1039>
|1040> %pal
|1041>     nprocs 12
|1042> end
|1043>
|1044> %maxcore 8000
|1045>
|1046> %scf
|1047>     ConvForced true
|1048> end
|1049>
|1050> *xyz 0 1
|1051> O   1.596866603   1.354157171   0.193838772
|1052> H   1.013066603   1.423057171  -0.611761228
|1053> H   1.531066603   2.207957171   0.638438772
|1054> O   0.339566603  -1.304842829   0.399438772
|1055> H   0.783266603  -1.529442829  -0.438761228
|1056> H   0.773666603  -0.470442829   0.651438772
|1057> O  -1.944433397  -0.070942829  -0.554261228
|1058> H  -1.266933397  -0.650842829  -0.138461228
|1059> H  -2.707133397  -0.636942829  -0.720261228
|1060> *
|1061>
|1062>
|1063> $new_job
|1064>
|1065> # 6h2o.temelso.etal.dset.3h2o-orca.engrad-mp2.augccpvtz-0.to.49
|1066> ! MP2 aug-cc-pVTZ EnGrad TightSCF FrozenCore
|1067>
|1068> %pal
|1069>     nprocs 12
|1070> end
|1071>
|1072> %maxcore 8000
|1073>
|1074> %scf
|1075>     ConvForced true
|1076> end
|1077>
|1078> *xyz 0 1
|1079> O   0.478287536   0.911998635   0.604437755
|1080> H  -0.105512464   0.980898635  -0.201162245
|1081> H   0.412487536   1.765798635   1.049037755
|1082> O   2.629587536  -0.394701365  -0.520262245
|1083> H   2.010487536   0.177298635  -0.014762245
|1084> H   3.181587536  -0.818501365   0.148737755
|1085> O  -3.063012464  -0.513101365  -0.143662245
|1086> H  -2.385512464  -1.093001365   0.272137755
|1087> H  -3.825712464  -1.079101365  -0.309662245
|1088> *
|1089>
|1090>
|1091> $new_job
|1092>
|1093> # 6h2o.temelso.etal.dset.3h2o-orca.engrad-mp2.augccpvtz-0.to.49
|1094> ! MP2 aug-cc-pVTZ EnGrad TightSCF FrozenCore
|1095>
|1096> %pal
|1097>     nprocs 12
|1098> end
|1099>
|1100> %maxcore 8000
|1101>
|1102> %scf
|1103>     ConvForced true
|1104> end
|1105>
|1106> *xyz 0 1
|1107> O  -0.388396127  -0.854832928   0.745704056
|1108> H   0.055303873  -1.079432928  -0.092495944
|1109> H   0.045703873  -0.020432928   0.997704056
|1110> O   3.020203873   0.497467072  -0.584595944
|1111> H   2.401103873   1.069467072  -0.079095944
|1112> H   3.572203873   0.073667072   0.084404056
|1113> O  -2.672396127   0.379067072  -0.207995944
|1114> H  -1.994896127  -0.200832928   0.207804056
|1115> H  -3.435096127  -0.186932928  -0.373995944
|1116> *
|1117>
|1118>
|1119> $new_job
|1120>
|1121> # 6h2o.temelso.etal.dset.3h2o-orca.engrad-mp2.augccpvtz-0.to.49
|1122> ! MP2 aug-cc-pVTZ EnGrad TightSCF FrozenCore
|1123>
|1124> %pal
|1125>     nprocs 12
|1126> end
|1127>
|1128> %maxcore 8000
|1129>
|1130> %scf
|1131>     ConvForced true
|1132> end
|1133>
|1134> *xyz 0 1
|1135> O  -2.407152014   0.206929349   0.306141187
|1136> H  -3.049452014  -0.297870651  -0.207058813
|1137> H  -1.531852014   0.020929349  -0.120658813
|1138> O  -0.006852014   0.043229349  -0.914858813
|1139> H   0.776547986  -0.214170651  -0.384558813
|1140> H   0.148947986   0.985029349  -1.104358813
|1141> O   2.292747986  -0.282170651   0.658341187
|1142> H   3.100947986  -0.663970651   0.294841187
|1143> H   2.479747986   0.678229349   0.734041187
|1144> *
|1145>
|1146>
|1147> $new_job
|1148>
|1149> # 6h2o.temelso.etal.dset.3h2o-orca.engrad-mp2.augccpvtz-0.to.49
|1150> ! MP2 aug-cc-pVTZ EnGrad TightSCF FrozenCore
|1151>
|1152> %pal
|1153>     nprocs 12
|1154> end
|1155>
|1156> %maxcore 8000
|1157>
|1158> %scf
|1159>     ConvForced true
|1160> end
|1161>
|1162> *xyz 0 1
|1163> O  -2.437109958  -0.722236256   0.294776814
|1164> H  -3.079409958  -1.227036256  -0.218423186
|1165> H  -1.561809958  -0.908236256  -0.132023186
|1166> O  -0.036809958  -0.885936256  -0.926223186
|1167> H   0.746590042  -1.143336256  -0.395923186
|1168> H   0.118990042   0.055863744  -1.115723186
|1169> O   2.452890042   1.563063744   0.646976814
|1170> H   1.649390042   1.846463744   0.162076814
|1171> H   2.460090042   2.092363744   1.453476814
|1172> *
|1173>
|1174>
|1175> $new_job
|1176>
|1177> # 6h2o.temelso.etal.dset.3h2o-orca.engrad-mp2.augccpvtz-0.to.49
|1178> ! MP2 aug-cc-pVTZ EnGrad TightSCF FrozenCore
|1179>
|1180> %pal
|1181>     nprocs 12
|1182> end
|1183>
|1184> %maxcore 8000
|1185>
|1186> %scf
|1187>     ConvForced true
|1188> end
|1189>
|1190> *xyz 0 1
|1191> O  -0.871466568  -0.831822547   0.399275844
|1192> H  -1.513766568  -1.336622547  -0.113924156
|1193> H   0.003833432  -1.017822547  -0.027524156
|1194> O   1.528833432  -0.995522547  -0.821724156
|1195> H   2.312233432  -1.252922547  -0.291424156
|1196> H   1.684633432  -0.053722547  -1.011224156
|1197> O  -0.703566568   1.864677453   0.404075844
|1198> H  -0.887566568   0.892377453   0.432975844
|1199> H  -0.865966568   2.176077453   1.302775844
|1200> *
|1201>
|1202>
|1203> $new_job
|1204>
|1205> # 6h2o.temelso.etal.dset.3h2o-orca.engrad-mp2.augccpvtz-0.to.49
|1206> ! MP2 aug-cc-pVTZ EnGrad TightSCF FrozenCore
|1207>
|1208> %pal
|1209>     nprocs 12
|1210> end
|1211>
|1212> %maxcore 8000
|1213>
|1214> %scf
|1215>     ConvForced true
|1216> end
|1217>
|1218> *xyz 0 1
|1219> O  -1.670994754  -0.877646693   0.809644222
|1220> H  -2.313294754  -1.382446693   0.296444222
|1221> H  -0.795694754  -1.063646693   0.382844222
|1222> O   0.729305246  -1.041346693  -0.411355778
|1223> H   1.512705246  -1.298746693   0.118944222
|1224> H   0.885105246  -0.099546693  -0.600855778
|1225> O   0.927205246   1.880553307  -0.348155778
|1226> H   0.896805246   2.498253307  -1.089055778
|1227> H   0.044305246   1.956353307   0.095844222
|1228> *
|1229>
|1230>
|1231> $new_job
|1232>
|1233> # 6h2o.temelso.etal.dset.3h2o-orca.engrad-mp2.augccpvtz-0.to.49
|1234> ! MP2 aug-cc-pVTZ EnGrad TightSCF FrozenCore
|1235>
|1236> %pal
|1237>     nprocs 12
|1238> end
|1239>
|1240> %maxcore 8000
|1241>
|1242> %scf
|1243>     ConvForced true
|1244> end
|1245>
|1246> *xyz 0 1
|1247> O  -3.204687605  -0.611796582  -0.217900762
|1248> H  -3.846987605  -1.116596582  -0.731100762
|1249> H  -2.329387605  -0.797796582  -0.644700762
|1250> O   1.495212395  -1.100896582   0.134299238
|1251> H   2.303412395  -1.482696582  -0.229200762
|1252> H   1.682212395  -0.140496582   0.209999238
|1253> O   1.685312395   1.673503418   0.134299238
|1254> H   0.881812395   1.956903418  -0.350600762
|1255> H   1.692512395   2.202803418   0.940799238
|1256> *
|1257>
|1258>
|1259> $new_job
|1260>
|1261> # 6h2o.temelso.etal.dset.3h2o-orca.engrad-mp2.augccpvtz-0.to.49
|1262> ! MP2 aug-cc-pVTZ EnGrad TightSCF FrozenCore
|1263>
|1264> %pal
|1265>     nprocs 12
|1266> end
|1267>
|1268> %maxcore 8000
|1269>
|1270> %scf
|1271>     ConvForced true
|1272> end
|1273>
|1274> *xyz 0 1
|1275> O  -1.639044215  -0.721382873  -0.113401731
|1276> H  -2.281344215  -1.226182873  -0.626601731
|1277> H  -0.763744215  -0.907382873  -0.540201731
|1278> O   3.060855785  -1.210482873   0.238798269
|1279> H   3.869055785  -1.592282873  -0.124701731
|1280> H   3.247855785  -0.250082873   0.314498269
|1281> O  -1.471144215   1.975117127  -0.108601731
|1282> H  -1.655144215   1.002817127  -0.079701731
|1283> H  -1.633544215   2.286517127   0.790098269
|1284> *
|1285>
|1286>
|1287> $new_job
|1288>
|1289> # 6h2o.temelso.etal.dset.3h2o-orca.engrad-mp2.augccpvtz-0.to.49
|1290> ! MP2 aug-cc-pVTZ EnGrad TightSCF FrozenCore
|1291>
|1292> %pal
|1293>     nprocs 12
|1294> end
|1295>
|1296> %maxcore 8000
|1297>
|1298> %scf
|1299>     ConvForced true
|1300> end
|1301>
|1302> *xyz 0 1
|1303> O  -2.438572401  -0.767207019   0.296966646
|1304> H  -3.080872401  -1.272007019  -0.216233354
|1305> H  -1.563272401  -0.953207019  -0.129833354
|1306> O   2.261327599  -1.256307019   0.649166646
|1307> H   3.069527599  -1.638107019   0.285666646
|1308> H   2.448327599  -0.295907019   0.724866646
|1309> O   0.159627599   1.990992981  -0.860833354
|1310> H   0.129227599   2.608692981  -1.601733354
|1311> H  -0.723272401   2.066792981  -0.416833354
|1312> *
|1313>
|1314>
|1315> $new_job
|1316>
|1317> # 6h2o.temelso.etal.dset.3h2o-orca.engrad-mp2.augccpvtz-0.to.49
|1318> ! MP2 aug-cc-pVTZ EnGrad TightSCF FrozenCore
|1319>
|1320> %pal
|1321>     nprocs 12
|1322> end
|1323>
|1324> %maxcore 8000
|1325>
|1326> %scf
|1327>     ConvForced true
|1328> end
|1329>
|1330> *xyz 0 1
|1331> O  -1.669002159  -1.650548478  -0.124766105
|1332> H  -2.311302159  -2.155348478  -0.637966105
|1333> H  -0.793702159  -1.836548478  -0.551566105
|1334> O   3.220997841   0.634751522   0.227433895
|1335> H   2.417497841   0.918151522  -0.257466105
|1336> H   3.228197841   1.164051522   1.033933895
|1337> O  -1.501102159   1.045951522  -0.119966105
|1338> H  -1.685102159   0.073651522  -0.091066105
|1339> H  -1.663502159   1.357351522   0.778733895
|1340> *
|1341>
|1342>
|1343> $new_job
|1344>
|1345> # 6h2o.temelso.etal.dset.3h2o-orca.engrad-mp2.augccpvtz-0.to.49
|1346> ! MP2 aug-cc-pVTZ EnGrad TightSCF FrozenCore
|1347>
|1348> %pal
|1349>     nprocs 12
|1350> end
|1351>
|1352> %maxcore 8000
|1353>
|1354> %scf
|1355>     ConvForced true
|1356> end
|1357>
|1358> *xyz 0 1
|1359> O  -2.468530345  -1.696372624   0.285602272
|1360> H  -3.110830345  -2.201172624  -0.227597728
|1361> H  -1.593230345  -1.882372624  -0.141197728
|1362> O   2.421469655   0.588927376   0.637802272
|1363> H   1.617969655   0.872327376   0.152902272
|1364> H   2.428669655   1.118227376   1.444302272
|1365> O   0.129669655   1.061827376  -0.872197728
|1366> H   0.099269655   1.679527376  -1.613097728
|1367> H  -0.753230345   1.137627376  -0.428197728
|1368> *
|1369>
|1370>
|1371> $new_job
|1372>
|1373> # 6h2o.temelso.etal.dset.3h2o-orca.engrad-mp2.augccpvtz-0.to.49
|1374> ! MP2 aug-cc-pVTZ EnGrad TightSCF FrozenCore
|1375>
|1376> %pal
|1377>     nprocs 12
|1378> end
|1379>
|1380> %maxcore 8000
|1381>
|1382> %scf
|1383>     ConvForced true
|1384> end
|1385>
|1386> *xyz 0 1
|1387> O  -0.902886956  -1.805958914   0.390101303
|1388> H  -1.545186956  -2.310758914  -0.123098697
|1389> H  -0.027586956  -1.991958914  -0.036698697
|1390> O  -0.734986956   0.890541086   0.394901303
|1391> H  -0.918986956  -0.081758914   0.423801303
|1392> H  -0.897386956   1.201941086   1.293601303
|1393> O   1.695313044   0.952241086  -0.767698697
|1394> H   1.664913044   1.569941086  -1.508598697
|1395> H   0.812413044   1.028041086  -0.323698697
|1396> *
|1397>
|1398>                          ****END OF INPUT****
 Total Charge           Charge          ....    0
 Multiplicity           Mult            ....    1
 Number of Electrons    NEL             ....   30
MP2 TOTAL ENERGY:     -228.999764389 Eh
FINAL SINGLE POINT ENERGY      -228.999764388833
MP2 TOTAL ENERGY:     -228.992164029 Eh
FINAL SINGLE POINT ENERGY      -228.992164028809
MP2 TOTAL ENERGY:     -229.000118909 Eh
FINAL SINGLE POINT ENERGY      -229.000118908548
MP2 TOTAL ENERGY:     -229.001540648 Eh
FINAL SINGLE POINT ENERGY      -229.001540648047
MP2 TOTAL ENERGY:     -229.003412433 Eh
FINAL SINGLE POINT ENERGY      -229.003412432858
MP2 TOTAL ENERGY:     -229.001851181 Eh
FINAL SINGLE POINT ENERGY      -229.001851180794
FINAL SINGLE POINT ENERGY      -228.994725758726
FINAL SINGLE POINT ENERGY      -229.003064918635
FINAL SINGLE POINT ENERGY      -228.992860112965
FINAL SINGLE POINT ENERGY      -229.003412605273
FINAL SINGLE POINT ENERGY      -229.001018071892
FINAL SINGLE POINT ENERGY      -228.993870822505
FINAL SINGLE POINT ENERGY      -229.005462214345
FINAL SINGLE POINT ENERGY      -229.004656566376
MP2 TOTAL ENERGY:     -228.995106389 Eh
FINAL SINGLE POINT ENERGY      -228.995106389464
MP2 TOTAL ENERGY:     -228.994238709 Eh
FINAL SINGLE POINT ENERGY      -228.994238709048
MP2 TOTAL ENERGY:     -228.989256679 Eh
FINAL SINGLE POINT ENERGY      -228.989256678822
MP2 TOTAL ENERGY:     -228.994492967 Eh
FINAL SINGLE POINT ENERGY      -228.994492966864
MP2 TOTAL ENERGY:     -228.995057398 Eh
FINAL SINGLE POINT ENERGY      -228.995057398104

CARTESIAN COORDINATES (ANGSTROEM)
---------------------------------
  O     -0.902887   -1.805959    0.390101
  H     -1.545187   -2.310759   -0.123099
  H     -0.027587   -1.991959   -0.036699
  O     -0.734987    0.890541    0.394901
  H     -0.918987   -0.081759    0.423801
  H     -0.897387    1.201941    1.293601
  O      1.695313    0.952241   -0.767699
  H      1.664913    1.569941   -1.508599
  H      0.812413    1.028041   -0.323699

 Multiplicity           Mult            ....    1
 Number of Electrons    NEL             ....   30
 Basis Dimension        Dim             ....  276

ORBITAL ENERGIES
----------------

  NO   OCC          E(Eh)            E(eV)
   0   2.0000     -20.606220      -560.7237
   1   2.0000     -20.559018      -559.4393
   2   2.0000     -20.520023      -558.3782
   3   2.0000      -1.385913       -37.7126
   4   2.0000      -1.344136       -36.5758
   5   2.0000      -1.297891       -35.3174
   6   2.0000      -0.748393       -20.3648
   7   2.0000      -0.717766       -19.5314
   8   2.0000      -0.682439       -18.5701
   9   2.0000      -0.626504       -17.0480
  10   2.0000      -0.585001       -15.9187
  11   2.0000      -0.546102       -14.8602
  12   2.0000      -0.530932       -14.4474
  13   2.0000      -0.497732       -13.5440
  14   2.0000      -0.464816       -12.6483
  15   0.0000       0.020929         0.5695
  16   0.0000       0.040947         1.1142
  17   0.0000       0.048157         1.3104
  18   0.0000       0.053170         1.4468
  19   0.0000       0.074091         2.0161

MULLIKEN ATOMIC CHARGES
-----------------------
   0 O :   -0.388493
   1 H :    0.202308
   2 H :    0.247774
   3 O :   -0.430129
   4 H :    0.269995
   5 H :    0.173573
   6 O :   -0.532226
   7 H :    0.188224
   8 H :    0.268975
Sum of atomic charges:    0.0000000

LOEWDIN ATOMIC CHARGES
----------------------
   0 O :    1.092104
   1 H :   -0.450320
   2 H :   -0.391824
   3 O :    1.107351
   4 H :   -0.665674
   5 H :   -0.443467
   6 O :    1.008681
   7 H :   -0.516566
   8 H :   -0.740284

  Mayer bond orders larger than 0.100000
B(  0-O ,  1-H ) :   0.9684 B(  0-O ,  2-H ) :   0.9231 B(  3-O ,  4-H ) :   0.8546
B(  3-O ,  5-H ) :   1.0001 B(  6-O ,  7-H ) :   0.9871 B(  6-O ,  8-H ) :   0.8357

MP2 TOTAL ENERGY:     -229.004724636 Eh
FINAL SINGLE POINT ENERGY      -229.004724635681

DIPOLE MOMENT
-------------
                                X             Y             Z
Electronic contribution:     -0.10205      -0.22472       0.21580
Nuclear contribution   :     -0.85458      -0.54786      -0.25745
                        -----------------------------------------
Total Dipole Moment    :     -0.95663      -0.77258      -0.04165
                        -----------------------------------------
Magnitude (a.u.)       :      1.23035
Magnitude (Debye)      :      3.12729

Rotational constants in cm-1:     0.384427     0.116099     0.090549
Rotational constants in MHz : 11524.843930  3480.569667  2714.592924

                             ****ORCA TERMINATED NORMALLY****
TOTAL RUN TIME: 0 days 1 hours 15 minutes 29 seconds 692 msec
