                         Program Version 4.2.0 -  RELEASE  -
|  1> # 5h2o.temelso.etal.dset.3h2o-orca.engrad-mp2.augccpvtz-0.to.49
|  2> ! MP2 aug-cc-pVTZ EnGrad TightSCF FrozenCore
|  3>
|  4> %pal
|  5>     nprocs 12
|  6> end
|  7>
|  8> %maxcore 8000
|  9>
| 10> %scf
| 11>     ConvForced true
| 12> end
| 13>
| 14> *xyz 0 1
| 15> O  -0.071613226  -2.226864692  -0.591605332
| 16> H  -0.612313226  -2.477064692  -1.350605332
| 17> H  -0.451413226  -1.370064692  -0.283805332
| 18> O  -1.027813226   0.196935308   0.216694668
| 19> H  -0.307513226   0.867235308   0.279694668
| 20> H  -1.509013226   0.268435308   1.049494668
| 21> O   1.077786774   1.955835308   0.319994668
| 22> H   1.322886774   2.395135308   1.143294668
| 23> H   1.900886774   1.492535308   0.033694668
| 24> *
| 25>
| 26>
| 27> $new_job
| 28>
| 29> # 5h2o.temelso.etal.dset.3h2o-orca.engrad-mp2.augccpvtz-0.to.49
| 30> ! MP2 aug-cc-pVTZ EnGrad TightSCF FrozenCore
| 31>
| 32> %pal
| 33>     nprocs 12
| 34> end
| 35>
| 36> %maxcore 8000
| 37>
| 38> %scf
| 39>     ConvForced true
| 40> end
| 41>
| 42> *xyz 0 1
| 43> O  -0.802337100  -1.761382827  -0.307991142
| 44> H  -1.343037100  -2.011582827  -1.066991142
| 45> H  -1.182137100  -0.904582827  -0.000191142
| 46> O  -1.758537100   0.662417173   0.500308858
| 47> H  -1.038237100   1.332717173   0.563308858
| 48> H  -2.239737100   0.733917173   1.333108858
| 49> O   2.585562900   1.060117173  -0.162991142
| 50> H   2.377262900   0.110317173  -0.330091142
| 51> H   3.033962900   1.355917173  -0.964691142
| 52> *
| 53>
| 54>
| 55> $new_job
| 56>
| 57> # 5h2o.temelso.etal.dset.3h2o-orca.engrad-mp2.augccpvtz-0.to.49
| 58> ! MP2 aug-cc-pVTZ EnGrad TightSCF FrozenCore
| 59>
| 60> %pal
| 61>     nprocs 12
| 62> end
| 63>
| 64> %maxcore 8000
| 65>
| 66> %scf
| 67>     ConvForced true
| 68> end
| 69>
| 70> *xyz 0 1
| 71> O  -0.556386620  -0.893477383  -0.179644993
| 72> H  -1.097086620  -1.143677383  -0.938644993
| 73> H  -0.936186620  -0.036677383   0.128155007
| 74> O  -1.512586620   1.530322617   0.628655007
| 75> H  -0.792286620   2.200622617   0.691655007
| 76> H  -1.993786620   1.601822617   1.461455007
| 77> O   2.139313380  -0.665377383  -0.508244993
| 78> H   1.165813380  -0.789977383  -0.406944993
| 79> H   2.536913380  -1.379177383   0.004655007
| 80> *
| 81>
| 82>
| 83> $new_job
| 84>
| 85> # 5h2o.temelso.etal.dset.3h2o-orca.engrad-mp2.augccpvtz-0.to.49
| 86> ! MP2 aug-cc-pVTZ EnGrad TightSCF FrozenCore
| 87>
| 88> %pal
| 89>     nprocs 12
| 90> end
| 91>
| 92> %maxcore 8000
| 93>
| 94> %scf
| 95>     ConvForced true
| 96> end
| 97>
| 98> *xyz 0 1
| 99> O  -1.519665208  -2.333401833  -0.335733406
|100> H  -2.060365208  -2.583601833  -1.094733406
|101> H  -1.899465208  -1.476601833  -0.027933406
|102> O  -0.370265208   1.849298167   0.575866594
|103> H  -0.125165208   2.288598167   1.399166594
|104> H   0.452834792   1.385998167   0.289566594
|105> O   1.868234792   0.488098167  -0.190733406
|106> H   1.659934792  -0.461701833  -0.357833406
|107> H   2.316634792   0.783898167  -0.992433406
|108> *
|109>
|110>
|111> $new_job
|112>
|113> # 5h2o.temelso.etal.dset.3h2o-orca.engrad-mp2.augccpvtz-0.to.49
|114> ! MP2 aug-cc-pVTZ EnGrad TightSCF FrozenCore
|115>
|116> %pal
|117>     nprocs 12
|118> end
|119>
|120> %maxcore 8000
|121>
|122> %scf
|123>     ConvForced true
|124> end
|125>
|126> *xyz 0 1
|127> O  -1.273714728  -1.465496390  -0.207387258
|128> H  -1.814414728  -1.715696390  -0.966387258
|129> H  -1.653514728  -0.608696390   0.100412742
|130> O  -0.124314728   2.717203610   0.704212742
|131> H   0.120785272   3.156503610   1.527512742
|132> H   0.698785272   2.253903610   0.417912742
|133> O   1.421985272  -1.237396390  -0.535987258
|134> H   0.448485272  -1.361996390  -0.434687258
|135> H   1.819585272  -1.951196390  -0.023087258
|136> *
|137>
|138>
|139> $new_job
|140>
|141> # 5h2o.temelso.etal.dset.3h2o-orca.engrad-mp2.augccpvtz-0.to.49
|142> ! MP2 aug-cc-pVTZ EnGrad TightSCF FrozenCore
|143>
|144> %pal
|145>     nprocs 12
|146> end
|147>
|148> %maxcore 8000
|149>
|150> %scf
|151>     ConvForced true
|152> end
|153>
|154> *xyz 0 1
|155> O  -2.004438602  -1.000014524   0.076226932
|156> H  -2.545138602  -1.250214524  -0.682773068
|157> H  -2.384238602  -0.143214524   0.384026932
|158> O   1.383461398   1.821485476   0.221226932
|159> H   1.175161398   0.871685476   0.054126932
|160> H   1.831861398   2.117285476  -0.580473068
|161> O   0.691261398  -0.771914524  -0.252373068
|162> H  -0.282238602  -0.896514524  -0.151073068
|163> H   1.088861398  -1.485714524   0.260526932
|164> *
|165>
|166>
|167> $new_job
|168>
|169> # 5h2o.temelso.etal.dset.3h2o-orca.engrad-mp2.augccpvtz-0.to.49
|170> ! MP2 aug-cc-pVTZ EnGrad TightSCF FrozenCore
|171>
|172> %pal
|173>     nprocs 12
|174> end
|175>
|176> %maxcore 8000
|177>
|178> %scf
|179>     ConvForced true
|180> end
|181>
|182> *xyz 0 1
|183> O  -2.178756633  -0.720056439   0.178013779
|184> H  -1.458456633  -0.049756439   0.241013779
|185> H  -2.659956633  -0.648556439   1.010813779
|186> O  -0.073156633   1.038843561   0.281313779
|187> H   0.171943367   1.478143561   1.104613779
|188> H   0.749943367   0.575543561  -0.004986221
|189> O   2.165343367  -0.322356439  -0.485286221
|190> H   1.957043367  -1.272156439  -0.652386221
|191> H   2.613743367  -0.026556439  -1.286986221
|192> *
|193>
|194>
|195> $new_job
|196>
|197> # 5h2o.temelso.etal.dset.3h2o-orca.engrad-mp2.augccpvtz-0.to.49
|198> ! MP2 aug-cc-pVTZ EnGrad TightSCF FrozenCore
|199>
|200> %pal
|201>     nprocs 12
|202> end
|203>
|204> %maxcore 8000
|205>
|206> %scf
|207>     ConvForced true
|208> end
|209>
|210> *xyz 0 1
|211> O  -1.932806153   0.147849005   0.306359928
|212> H  -1.212506153   0.818149005   0.369359928
|213> H  -2.414006153   0.219349005   1.139159928
|214> O   0.172793847   1.906749005   0.409659928
|215> H   0.417893847   2.346049005   1.232959928
|216> H   0.995893847   1.443449005   0.123359928
|217> O   1.719093847  -2.047850995  -0.830540072
|218> H   0.745593847  -2.172450995  -0.729240072
|219> H   2.116693847  -2.761650995  -0.317640072
|220> *
|221>
|222>
|223> $new_job
|224>
|225> # 5h2o.temelso.etal.dset.3h2o-orca.engrad-mp2.augccpvtz-0.to.49
|226> ! MP2 aug-cc-pVTZ EnGrad TightSCF FrozenCore
|227>
|228> %pal
|229>     nprocs 12
|230> end
|231>
|232> %maxcore 8000
|233>
|234> %scf
|235>     ConvForced true
|236> end
|237>
|238> *xyz 0 1
|239> O  -2.663530027   0.613330870   0.589974118
|240> H  -1.943230027   1.283630870   0.652974118
|241> H  -3.144730027   0.684830870   1.422774118
|242> O   1.680569973   1.011030870  -0.073325882
|243> H   1.472269973   0.061230870  -0.240425882
|244> H   2.128969973   1.306830870  -0.875025882
|245> O   0.988369973  -1.582369130  -0.546925882
|246> H   0.014869973  -1.706969130  -0.445625882
|247> H   1.385969973  -2.296169130  -0.034025882
|248> *
|249>
|250>
|251> $new_job
|252>
|253> # 5h2o.temelso.etal.dset.3h2o-orca.engrad-mp2.augccpvtz-0.to.49
|254> ! MP2 aug-cc-pVTZ EnGrad TightSCF FrozenCore
|255>
|256> %pal
|257>     nprocs 12
|258> end
|259>
|260> %maxcore 8000
|261>
|262> %scf
|263>     ConvForced true
|264> end
|265>
|266> *xyz 0 1
|267> O  -1.275258135   1.800211864   0.665531854
|268> H  -1.030158135   2.239511864   1.488831854
|269> H  -0.452158135   1.336911864   0.379231854
|270> O   0.963241865   0.439011864  -0.101068146
|271> H   0.754941865  -0.510788136  -0.268168146
|272> H   1.411641865   0.734811864  -0.902768146
|273> O   0.271041865  -2.154388136  -0.574668146
|274> H  -0.702458135  -2.278988136  -0.473368146
|275> H   0.668641865  -2.868188136  -0.061768146
|276> *
|277>
|278>
|279> $new_job
|280>
|281> # 5h2o.temelso.etal.dset.3h2o-orca.engrad-mp2.augccpvtz-0.to.49
|282> ! MP2 aug-cc-pVTZ EnGrad TightSCF FrozenCore
|283>
|284> %pal
|285>     nprocs 12
|286> end
|287>
|288> %maxcore 8000
|289>
|290> %scf
|291>     ConvForced true
|292> end
|293>
|294> *xyz 0 1
|295> O  -0.861777421   1.620419479   1.061956173
|296> H  -0.994577421   0.822119479   0.492556173
|297> H  -1.588477421   1.605819479   1.696056173
|298> O  -0.937977421  -0.602180521  -0.494443827
|299> H   0.012422579  -0.865380521  -0.524343827
|300> H  -1.187977421  -0.499480521  -1.421243827
|301> O   1.766422579  -0.972380521  -0.568043827
|302> H   2.269422579  -1.660480521  -0.116143827
|303> H   2.018322579  -0.130580521  -0.118443827
|304> *
|305>
|306>
|307> $new_job
|308>
|309> # 5h2o.temelso.etal.dset.3h2o-orca.engrad-mp2.augccpvtz-0.to.49
|310> ! MP2 aug-cc-pVTZ EnGrad TightSCF FrozenCore
|311>
|312> %pal
|313>     nprocs 12
|314> end
|315>
|316> %maxcore 8000
|317>
|318> %scf
|319>     ConvForced true
|320> end
|321>
|322> *xyz 0 1
|323> O  -0.930854507   0.822409881   0.629146561
|324> H  -1.063654507   0.024109881   0.059746561
|325> H  -1.657554507   0.807809881   1.263246561
|326> O  -1.007054507  -1.400190119  -0.927253439
|327> H  -0.056654507  -1.663390119  -0.957153439
|328> H  -1.257054507  -1.297490119  -1.854053439
|329> O   2.001345493   0.589209881   0.349246561
|330> H   1.853045493   1.393309881  -0.183253439
|331> H   1.174845493   0.554209881   0.859646561
|332> *
|333>
|334>
|335> $new_job
|336>
|337> # 5h2o.temelso.etal.dset.3h2o-orca.engrad-mp2.augccpvtz-0.to.49
|338> ! MP2 aug-cc-pVTZ EnGrad TightSCF FrozenCore
|339>
|340> %pal
|341>     nprocs 12
|342> end
|343>
|344> %maxcore 8000
|345>
|346> %scf
|347>     ConvForced true
|348> end
|349>
|350> *xyz 0 1
|351> O  -0.453976077   0.088214257   0.971606296
|352> H  -0.586776077  -0.710085743   0.402206296
|353> H  -1.180676077   0.073614257   1.605706296
|354> O  -0.530176077  -2.134385743  -0.584793704
|355> H   0.420223923  -2.397585743  -0.614693704
|356> H  -0.780176077  -2.031685743  -1.511593704
|357> O   1.031923923   2.080214257  -0.386493704
|358> H   1.037123923   2.946914257   0.038006296
|359> H   0.331923923   1.578414257   0.075306296
|360> *
|361>
|362>
|363> $new_job
|364>
|365> # 5h2o.temelso.etal.dset.3h2o-orca.engrad-mp2.augccpvtz-0.to.49
|366> ! MP2 aug-cc-pVTZ EnGrad TightSCF FrozenCore
|367>
|368> %pal
|369>     nprocs 12
|370> end
|371>
|372> %maxcore 8000
|373>
|374> %scf
|375>     ConvForced true
|376> end
|377>
|378> *xyz 0 1
|379> O  -1.833337515   0.939950534   0.619027319
|380> H  -1.966137515   0.141650534   0.049627319
|381> H  -2.560037515   0.925350534   1.253127319
|382> O   0.794862485  -1.652849466  -1.010972681
|383> H   1.297862485  -2.340949466  -0.559072681
|384> H   1.046762485  -0.811049466  -0.561372681
|385> O   1.098862485   0.706750534   0.339127319
|386> H   0.950562485   1.510850534  -0.193372681
|387> H   0.272362485   0.671750534   0.849527319
|388> *
|389>
|390>
|391> $new_job
|392>
|393> # 5h2o.temelso.etal.dset.3h2o-orca.engrad-mp2.augccpvtz-0.to.49
|394> ! MP2 aug-cc-pVTZ EnGrad TightSCF FrozenCore
|395>
|396> %pal
|397>     nprocs 12
|398> end
|399>
|400> %maxcore 8000
|999> H  -0.123332239   1.473771085  -0.419166815
|1000> H   0.663367761   2.066371085  -1.612466815
|1001> O  -1.245032239   0.186171085   0.221033185
|1002> H  -1.098632239   0.191771085   1.182133185
|1003> H  -0.806432239  -0.643928915  -0.035166815
|1004> *
|1005>
|1006>
|1007> $new_job
|1008>
|1009> # 5h2o.temelso.etal.dset.3h2o-orca.engrad-mp2.augccpvtz-0.to.49
|1010> ! MP2 aug-cc-pVTZ EnGrad TightSCF FrozenCore
|1011>
|1012> %pal
|1013>     nprocs 12
|1014> end
|1015>
|1016> %maxcore 8000
|1017>
|1018> %scf
|1019>     ConvForced true
|1020> end
|1021>
|1022> *xyz 0 1
|1023> O  -0.725604955  -1.090099715   1.680823899
|1024> H   0.036095045  -0.652399715   1.222223899
|1025> H  -0.554104955  -1.001299715   2.625823899
|1026> O   1.194595045  -0.280899715  -0.038976101
|1027> H   1.082795045  -1.103399715  -0.541276101
|1028> H   0.770495045   0.393500285  -0.613176101
|1029> O  -0.447204955   1.377500285  -1.567776101
|1030> H  -1.233904955   0.833900285  -1.338076101
|1031> H  -0.447204955   1.426500285  -2.531376101
|1032> *
|1033>
|1034>
|1035> $new_job
|1036>
|1037> # 5h2o.temelso.etal.dset.3h2o-orca.engrad-mp2.augccpvtz-0.to.49
|1038> ! MP2 aug-cc-pVTZ EnGrad TightSCF FrozenCore
|1039>
|1040> %pal
|1041>     nprocs 12
|1042> end
|1043>
|1044> %maxcore 8000
|1045>
|1046> %scf
|1047>     ConvForced true
|1048> end
|1049>
|1050> *xyz 0 1
|1051> O  -0.115051719  -0.473547587   1.364025823
|1052> H   0.646648281  -0.035847587   0.905425823
|1053> H   0.056448281  -0.384747587   2.309025823
|1054> O   1.805148281   0.335652413  -0.355774177
|1055> H   1.693348281  -0.486847587  -0.858074177
|1056> H   1.381048281   1.010052413  -0.929974177
|1057> O  -1.745051719   0.162852413  -1.014674177
|1058> H  -1.598651719   0.168452413  -0.053574177
|1059> H  -1.306451719  -0.667247587  -1.270874177
|1060> *
|1061>
|1062>
|1063> $new_job
|1064>
|1065> # 5h2o.temelso.etal.dset.3h2o-orca.engrad-mp2.augccpvtz-0.to.49
|1066> ! MP2 aug-cc-pVTZ EnGrad TightSCF FrozenCore
|1067>
|1068> %pal
|1069>     nprocs 12
|1070> end
|1071>
|1072> %maxcore 8000
|1073>
|1074> %scf
|1075>     ConvForced true
|1076> end
|1077>
|1078> *xyz 0 1
|1079> O   0.436891982  -1.019885894   1.867236859
|1080> H   1.198591982  -0.582185894   1.408636859
|1081> H   0.608391982  -0.931085894   2.812236859
|1082> O   0.715291982   1.447714106  -1.381363141
|1083> H  -0.071408018   0.904114106  -1.151663141
|1084> H   0.715291982   1.496714106  -2.344963141
|1085> O  -1.193108018  -0.383485894  -0.511463141
|1086> H  -1.046708018  -0.377885894   0.449636859
|1087> H  -0.754508018  -1.213585894  -0.767663141
|1088> *
|1089>
|1090>
|1091> $new_job
|1092>
|1093> # 5h2o.temelso.etal.dset.3h2o-orca.engrad-mp2.augccpvtz-0.to.49
|1094> ! MP2 aug-cc-pVTZ EnGrad TightSCF FrozenCore
|1095>
|1096> %pal
|1097>     nprocs 12
|1098> end
|1099>
|1100> %maxcore 8000
|1101>
|1102> %scf
|1103>     ConvForced true
|1104> end
|1105>
|1106> *xyz 0 1
|1107> O   1.744421774  -0.467838974   0.749849210
|1108> H   1.632621774  -1.290338974   0.247549210
|1109> H   1.320321774   0.206561026   0.175649210
|1110> O   0.102621774   1.190561026  -0.778950790
|1111> H  -0.684078226   0.646961026  -0.549250790
|1112> H   0.102621774   1.239561026  -1.742550790
|1113> O  -1.805778226  -0.640638974   0.090949210
|1114> H  -1.659378226  -0.635038974   1.052049210
|1115> H  -1.367178226  -1.470738974  -0.165250790
|1116> *
|1117>
|1118>
|1119> $new_job
|1120>
|1121> # 5h2o.temelso.etal.dset.3h2o-orca.engrad-mp2.augccpvtz-0.to.49
|1122> ! MP2 aug-cc-pVTZ EnGrad TightSCF FrozenCore
|1123>
|1124> %pal
|1125>     nprocs 12
|1126> end
|1127>
|1128> %maxcore 8000
|1129>
|1130> %scf
|1131>     ConvForced true
|1132> end
|1133>
|1134> *xyz 0 1
|1135> O   1.829163799   0.607905187   0.390667852
|1136> H   1.327863799  -0.058494813  -0.132832148
|1137> H   2.747063799   0.518805187   0.106667852
|1138> O   0.041063799  -1.089594813  -0.844132148
|1139> H  -0.747236201  -0.600194813  -0.522832148
|1140> H  -0.045936201  -1.967294813  -0.451232148
|1141> O  -1.820436201   0.547705187   0.397367852
|1142> H  -2.742636201   0.402505187   0.641067852
|1143> H  -1.329536201   0.656705187   1.249667852
|1144> *
|1145>
|1146>
|1147> $new_job
|1148>
|1149> # 5h2o.temelso.etal.dset.3h2o-orca.engrad-mp2.augccpvtz-0.to.49
|1150> ! MP2 aug-cc-pVTZ EnGrad TightSCF FrozenCore
|1151>
|1152> %pal
|1153>     nprocs 12
|1154> end
|1155>
|1156> %maxcore 8000
|1157>
|1158> %scf
|1159>     ConvForced true
|1160> end
|1161>
|1162> *xyz 0 1
|1163> O   1.249958315   0.390149006  -0.265064445
|1164> H   0.748658315  -0.276250994  -0.788564445
|1165> H   2.167858315   0.301049006  -0.549064445
|1166> O  -0.538141685  -1.307350994  -1.499864445
|1167> H  -1.326441685  -0.817950994  -1.178564445
|1168> H  -0.625141685  -2.185050994  -1.106964445
|1169> O  -0.736141685   0.953449006   1.809735555
|1170> H  -0.678141685   1.842249006   1.408935555
|1171> H   0.099358315   0.560549006   1.502935555
|1172> *
|1173>
|1174>
|1175> $new_job
|1176>
|1177> # 5h2o.temelso.etal.dset.3h2o-orca.engrad-mp2.augccpvtz-0.to.49
|1178> ! MP2 aug-cc-pVTZ EnGrad TightSCF FrozenCore
|1179>
|1180> %pal
|1181>     nprocs 12
|1182> end
|1183>
|1184> %maxcore 8000
|1185>
|1186> %scf
|1187>     ConvForced true
|1188> end
|1189>
|1190> *xyz 0 1
|1191> O   1.201109073  -0.181144452   0.476289774
|1192> H   0.699809073  -0.847544452  -0.047210226
|1193> H   2.119009073  -0.270244452   0.192289774
|1194> O  -0.586990927  -1.878644452  -0.758510226
|1195> H  -1.375290927  -1.389244452  -0.437210226
|1196> H  -0.673990927  -2.756344452  -0.365610226
|1197> O  -0.587090927   2.185755548   0.315289774
|1198> H  -1.351790927   1.687555548  -0.014010226
|1199> H   0.153209073   1.576155548   0.146789774
|1200> *
|1201>
|1202>
|1203> $new_job
|1204>
|1205> # 5h2o.temelso.etal.dset.3h2o-orca.engrad-mp2.augccpvtz-0.to.49
|1206> ! MP2 aug-cc-pVTZ EnGrad TightSCF FrozenCore
|1207>
|1208> %pal
|1209>     nprocs 12
|1210> end
|1211>
|1212> %maxcore 8000
|1213>
|1214> %scf
|1215>     ConvForced true
|1216> end
|1217>
|1218> *xyz 0 1
|1219> O   1.862178397  -0.162183784  -0.686017762
|1220> H   1.360878397  -0.828583784  -1.209517762
|1221> H   2.780078397  -0.251283784  -0.970017762
|1222> O  -1.787421603  -0.222383784  -0.679317762
|1223> H  -2.709621603  -0.367583784  -0.435617762
|1224> H  -1.296521603  -0.113383784   0.172982238
|1225> O  -0.123921603   0.401116216   1.388782238
|1226> H  -0.065921603   1.289916216   0.987982238
|1227> H   0.711578397   0.008216216   1.081982238
|1228> *
|1229>
|1230>
|1231> $new_job
|1232>
|1233> # 5h2o.temelso.etal.dset.3h2o-orca.engrad-mp2.augccpvtz-0.to.49
|1234> ! MP2 aug-cc-pVTZ EnGrad TightSCF FrozenCore
|1235>
|1236> %pal
|1237>     nprocs 12
|1238> end
|1239>
|1240> %maxcore 8000
|1241>
|1242> %scf
|1243>     ConvForced true
|1244> end
|1245>
|1246> *xyz 0 1
|1247> O   1.813329155  -0.733477243   0.055336457
|1248> H   1.312029155  -1.399877243  -0.468163543
|1249> H   2.731229155  -0.822577243  -0.228663543
|1250> O  -1.836270845  -0.793677243   0.062036457
|1251> H  -2.758470845  -0.938877243   0.305736457
|1252> H  -1.345370845  -0.684677243   0.914336457
|1253> O   0.025129155   1.633422757  -0.105663543
|1254> H  -0.739570845   1.135222757  -0.434963543
|1255> H   0.765429155   1.023822757  -0.274163543
|1256> *
|1257>
|1258>
|1259> $new_job
|1260>
|1261> # 5h2o.temelso.etal.dset.3h2o-orca.engrad-mp2.augccpvtz-0.to.49
|1262> ! MP2 aug-cc-pVTZ EnGrad TightSCF FrozenCore
|1263>
|1264> %pal
|1265>     nprocs 12
|1266> end
|1267>
|1268> %maxcore 8000
|1269>
|1270> %scf
|1271>     ConvForced true
|1272> end
|1273>
|1274> *xyz 0 1
|1275> O   1.234123670  -0.951233424  -0.600395841
|1276> H   0.732823670  -1.617633424  -1.123895841
|1277> H   2.152023670  -1.040333424  -0.884395841
|1278> O  -0.751976330  -0.387933424   1.474404159
|1279> H  -0.693976330   0.500866576   1.073604159
|1280> H   0.083523670  -0.780833424   1.167604159
|1281> O  -0.554076330   1.415666576  -0.761395841
|1282> H  -1.318776330   0.917466576  -1.090695841
|1283> H   0.186223670   0.806066576  -0.929895841
|1284> *
|1285>
|1286>
|1287> $new_job
|1288>
|1289> # 5h2o.temelso.etal.dset.3h2o-orca.engrad-mp2.augccpvtz-0.to.49
|1290> ! MP2 aug-cc-pVTZ EnGrad TightSCF FrozenCore
|1291>
|1292> %pal
|1293>     nprocs 12
|1294> end
|1295>
|1296> %maxcore 8000
|1297>
|1298> %scf
|1299>     ConvForced true
|1300> end
|1301>
|1302> *xyz 0 1
|1303> O   0.694203680  -1.300698167  -1.537595129
|1304> H  -0.094096320  -0.811298167  -1.216295129
|1305> H   0.607203680  -2.178398167  -1.144695129
|1306> O  -1.167296320   0.336601833  -0.296095129
|1307> H  -2.089496320   0.191401833  -0.052395129
|1308> H  -0.676396320   0.445601833   0.556204871
|1309> O   0.496203680   0.960101833   1.772004871
|1310> H   0.554203680   1.848901833   1.371204871
|1311> H   1.331703680   0.567201833   1.465204871
|1312> *
|1313>
|1314>
|1315> $new_job
|1316>
|1317> # 5h2o.temelso.etal.dset.3h2o-orca.engrad-mp2.augccpvtz-0.to.49
|1318> ! MP2 aug-cc-pVTZ EnGrad TightSCF FrozenCore
|1319>
|1320> %pal
|1321>     nprocs 12
|1322> end
|1323>
|1324> %maxcore 8000
|1325>
|1326> %scf
|1327>     ConvForced true
|1328> end
|1329>
|1330> *xyz 0 1
|1331> O   0.645354439  -1.871991626  -0.796240911
|1332> H  -0.142945561  -1.382591626  -0.474940911
|1333> H   0.558354439  -2.749691626  -0.403340911
|1334> O  -1.216145561  -0.234691626   0.445259089
|1335> H  -2.138345561  -0.379891626   0.688959089
|1336> H  -0.725245561  -0.125691626   1.297559089
|1337> O   0.645254439   2.192408374   0.277559089
|1338> H  -0.119445561   1.694208374  -0.051740911
|1339> H   1.385554439   1.582808374   0.109059089
|1340> *
|1341>
|1342>
|1343> $new_job
|1344>
|1345> # 5h2o.temelso.etal.dset.3h2o-orca.engrad-mp2.augccpvtz-0.to.49
|1346> ! MP2 aug-cc-pVTZ EnGrad TightSCF FrozenCore
|1347>
|1348> %pal
|1349>     nprocs 12
|1350> end
|1351>
|1352> %maxcore 8000
|1353>
|1354> %scf
|1355>     ConvForced true
|1356> end
|1357>
|1358> *xyz 0 1
|1359> O   0.066148954  -2.089747807  -1.451973208
|1360> H  -0.722151046  -1.600347807  -1.130673208
|1361> H  -0.020851046  -2.967447807  -1.059073208
|1362> O  -0.131851046   0.171052193   1.857626792
|1363> H  -0.073851046   1.059852193   1.456826792
|1364> H   0.703648954  -0.221847807   1.550826792
|1365> O   0.066048954   1.974652193  -0.378173208
|1366> H  -0.698651046   1.476452193  -0.707473208
|1367> H   0.806348954   1.365052193  -0.546673208
|1368> *
|1369>
|1370>
|1371> $new_job
|1372>
|1373> # 5h2o.temelso.etal.dset.3h2o-orca.engrad-mp2.augccpvtz-0.to.49
|1374> ! MP2 aug-cc-pVTZ EnGrad TightSCF FrozenCore
|1375>
|1376> %pal
|1377>     nprocs 12
|1378> end
|1379>
|1380> %maxcore 8000
|1381>
|1382> %scf
|1383>     ConvForced true
|1384> end
|1385>
|1386> *xyz 0 1
|1387> O  -1.183130964  -1.004780597  -0.631426525
|1388> H  -2.105330964  -1.149980597  -0.387726525
|1389> H  -0.692230964  -0.895780597   0.220873475
|1390> O   0.480369036  -0.381280597   1.436673475
|1391> H   0.538369036   0.507519403   1.035873475
|1392> H   1.315869036  -0.774180597   1.129873475
|1393> O   0.678269036   1.422319403  -0.799126525
|1394> H  -0.086430964   0.924119403  -1.128426525
|1395> H   1.418569036   0.812719403  -0.967626525
|1396> *
|1397>
|1398>                          ****END OF INPUT****
 Total Charge           Charge          ....    0
 Multiplicity           Mult            ....    1
 Number of Electrons    NEL             ....   30
MP2 TOTAL ENERGY:     -229.003754352 Eh
FINAL SINGLE POINT ENERGY      -229.003754352306
MP2 TOTAL ENERGY:     -228.996874340 Eh
FINAL SINGLE POINT ENERGY      -228.996874339523
MP2 TOTAL ENERGY:     -229.004552664 Eh
FINAL SINGLE POINT ENERGY      -229.004552664436
MP2 TOTAL ENERGY:     -228.996852974 Eh
FINAL SINGLE POINT ENERGY      -228.996852974234
MP2 TOTAL ENERGY:     -228.996867857 Eh
FINAL SINGLE POINT ENERGY      -228.996867856962
MP2 TOTAL ENERGY:     -229.004543903 Eh
FINAL SINGLE POINT ENERGY      -229.004543902705
FINAL SINGLE POINT ENERGY      -229.003823624963
FINAL SINGLE POINT ENERGY      -228.995874157825
FINAL SINGLE POINT ENERGY      -228.996813598883
FINAL SINGLE POINT ENERGY      -229.004541389494
FINAL SINGLE POINT ENERGY      -229.004367982024
FINAL SINGLE POINT ENERGY      -229.003489389871
FINAL SINGLE POINT ENERGY      -229.000076006439
FINAL SINGLE POINT ENERGY      -229.002790080909
MP2 TOTAL ENERGY:     -228.998465457 Eh
FINAL SINGLE POINT ENERGY      -228.998465456921
MP2 TOTAL ENERGY:     -229.000224301 Eh
FINAL SINGLE POINT ENERGY      -229.000224300889
MP2 TOTAL ENERGY:     -229.003600175 Eh
FINAL SINGLE POINT ENERGY      -229.003600175340
MP2 TOTAL ENERGY:     -228.998560758 Eh
FINAL SINGLE POINT ENERGY      -228.998560758212
MP2 TOTAL ENERGY:     -228.992097542 Eh
FINAL SINGLE POINT ENERGY      -228.992097542455

CARTESIAN COORDINATES (ANGSTROEM)
---------------------------------
  O     -1.183131   -1.004781   -0.631427
  H     -2.105331   -1.149981   -0.387727
  H     -0.692231   -0.895781    0.220873
  O      0.480369   -0.381281    1.436673
  H      0.538369    0.507519    1.035873
  H      1.315869   -0.774181    1.129873
  O      0.678269    1.422319   -0.799127
  H     -0.086431    0.924119   -1.128427
  H      1.418569    0.812719   -0.967627

 Multiplicity           Mult            ....    1
 Number of Electrons    NEL             ....   30
 Basis Dimension        Dim             ....  276

ORBITAL ENERGIES
----------------

  NO   OCC          E(Eh)            E(eV)
   0   2.0000     -20.585293      -560.1543
   1   2.0000     -20.578275      -559.9633
   2   2.0000     -20.552291      -559.2563
   3   2.0000      -1.375120       -37.4189
   4   2.0000      -1.357079       -36.9280
   5   2.0000      -1.330840       -36.2140
   6   2.0000      -0.725832       -19.7509
   7   2.0000      -0.718750       -19.5582
   8   2.0000      -0.706213       -19.2170
   9   2.0000      -0.619794       -16.8655
  10   2.0000      -0.599582       -16.3154
  11   2.0000      -0.575702       -15.6656
  12   2.0000      -0.526217       -14.3191
  13   2.0000      -0.512714       -13.9516
  14   2.0000      -0.496981       -13.5235
  15   0.0000       0.023606         0.6423
  16   0.0000       0.039891         1.0855
  17   0.0000       0.051295         1.3958
  18   0.0000       0.056910         1.5486
  19   0.0000       0.068009         1.8506

MULLIKEN ATOMIC CHARGES
-----------------------
   0 O :   -0.523193
   1 H :    0.187782
   2 H :    0.279323
   3 O :   -0.436279
   4 H :    0.303193
   5 H :    0.190608
   6 O :   -0.520993
   7 H :    0.292530
   8 H :    0.227029
Sum of atomic charges:   -0.0000000

LOEWDIN ATOMIC CHARGES
----------------------
   0 O :    1.042163
   1 H :   -0.489868
   2 H :   -0.693935
   3 O :    1.095925
   4 H :   -0.559474
   5 H :   -0.440662
   6 O :    1.059475
   7 H :   -0.543799
   8 H :   -0.469824

  Mayer bond orders larger than 0.100000
B(  0-O ,  1-H ) :   0.9913 B(  0-O ,  2-H ) :   0.8206 B(  3-O ,  4-H ) :   0.8626
B(  3-O ,  5-H ) :   0.9563 B(  6-O ,  7-H ) :   0.8751 B(  6-O ,  8-H ) :   0.9304

MP2 TOTAL ENERGY:     -229.004978796 Eh
FINAL SINGLE POINT ENERGY      -229.004978796237

DIPOLE MOMENT
-------------
                                X             Y             Z
Electronic contribution:     -0.01689       0.22375       0.11560
Nuclear contribution   :      0.36441      -0.53945      -0.09106
                        -----------------------------------------
Total Dipole Moment    :      0.34751      -0.31571       0.02454
                        -----------------------------------------
Magnitude (a.u.)       :      0.47015
Magnitude (Debye)      :      1.19502

Rotational constants in cm-1:     0.251580     0.192694     0.112358
Rotational constants in MHz :  7542.178023  5776.828827  3368.411524

                             ****ORCA TERMINATED NORMALLY****
TOTAL RUN TIME: 0 days 1 hours 14 minutes 57 seconds 138 msec
