                         Program Version 4.2.0 -  RELEASE  -
|  1> # 4mecn.malloum.etal.dset.1mecn.dset-orca.engrad-mp2.def2tzvp
|  2> ! MP2 def2-TZVP EnGrad TightSCF FrozenCore
|  3>
|  4> %pal
|  5>     nprocs 12
|  6> end
|  7>
|  8> %maxcore 8000
|  9>
| 10> %scf
| 11>     ConvForced true
| 12> end
| 13>
| 14> *xyz 0 1
| 15> C  -0.167509614  -1.172565437   0.523928538
| 16> H  -0.126501614  -1.080410437   1.613231538
| 17> H   0.634609386  -1.839805437   0.200402538
| 18> H  -1.137367614  -1.577001437   0.222872538
| 19> C   0.026910386   0.148108563  -0.067579462
| 20> N   0.165833386   1.202004563  -0.537827462
| 21> *
| 22>
| 23>
| 24> $new_job
| 25>
| 26> # 4mecn.malloum.etal.dset.1mecn.dset-orca.engrad-mp2.def2tzvp
| 27> ! MP2 def2-TZVP EnGrad TightSCF FrozenCore
| 28>
| 29> %pal
| 30>     nprocs 12
| 31> end
| 32>
| 33> %maxcore 8000
| 34>
| 35> %scf
| 36>     ConvForced true
| 37> end
| 38>
| 39> *xyz 0 1
| 40> C   0.167511222  -0.523928489  -1.172564828
| 41> H  -0.634608778  -0.200405489  -1.839804828
| 42> H   0.126507222  -1.613232489  -1.080408828
| 43> H   1.137368222  -0.222870489  -1.577000828
| 44> C  -0.026909778   0.067579511   0.148108172
| 45> N  -0.165835778   0.537827511   1.202004172
| 46> *
| 47>
| 48>
| 49> $new_job
| 50>
| 51> # 4mecn.malloum.etal.dset.1mecn.dset-orca.engrad-mp2.def2tzvp
| 52> ! MP2 def2-TZVP EnGrad TightSCF FrozenCore
| 53>
| 54> %pal
| 55>     nprocs 12
| 56> end
| 57>
| 58> %maxcore 8000
| 59>
| 60> %scf
| 61>     ConvForced true
| 62> end
| 63>
| 64> *xyz 0 1
| 65> C  -0.167514366   1.172564511  -0.523928514
| 66> H  -0.126508366   1.080408511  -1.613232514
| 67> H   0.634602634   1.839807511  -0.200403514
| 68> H  -1.137373366   1.576996511  -0.222871514
| 69> C   0.026910634  -0.148108489   0.067579486
| 70> N   0.165838634  -1.202003489   0.537827486
| 71> *
| 72>
| 73>
| 74> $new_job
| 75>
| 76> # 4mecn.malloum.etal.dset.1mecn.dset-orca.engrad-mp2.def2tzvp
| 77> ! MP2 def2-TZVP EnGrad TightSCF FrozenCore
| 78>
| 79> %pal
| 80>     nprocs 12
| 81> end
| 82>
| 83> %maxcore 8000
| 84>
| 85> %scf
| 86>     ConvForced true
| 87> end
| 88>
| 89> *xyz 0 1
| 90> C   0.167512806   0.523929172   1.172564145
| 91> H   1.137372806   0.222875172   1.576997145
| 92> H  -0.634603194   0.200401172   1.839807145
| 93> H   0.126502806   1.613232172   1.080410145
| 94> C  -0.026910194  -0.067579828  -0.148107855
| 95> N  -0.165837194  -0.537827828  -1.202003855
| 96> *
| 97>
| 98>
| 99> $new_job
|100>
|101> # 4mecn.malloum.etal.dset.1mecn.dset-orca.engrad-mp2.def2tzvp
|102> ! MP2 def2-TZVP EnGrad TightSCF FrozenCore
|103>
|104> %pal
|105>     nprocs 12
|106> end
|107>
|108> %maxcore 8000
|109>
|110> %scf
|111>     ConvForced true
|112> end
|113>
|114> *xyz 0 1
|115> C  -0.052646390  -0.574137837  -1.159749364
|116> H  -0.161959390  -1.653656837  -1.030756364
|117> H   0.853218610  -0.356524837  -1.731162364
|118> H  -0.929161390  -0.196546837  -1.694440364
|119> C   0.012043610   0.072039163   0.147912636
|120> N   0.051932610   0.589303163   1.188243636
|121> *
|122>
|123>
|124> $new_job
|125>
|126> # 4mecn.malloum.etal.dset.1mecn.dset-orca.engrad-mp2.def2tzvp
|127> ! MP2 def2-TZVP EnGrad TightSCF FrozenCore
|128>
|129> %pal
|130>     nprocs 12
|131> end
|132>
|133> %maxcore 8000
|134>
|135> %scf
|136>     ConvForced true
|137> end
|138>
|139> *xyz 0 1
|140> C   0.052646780  -0.574139544  -1.159748389
|141> H   0.161976780  -1.653655544  -1.030755389
|142> H   0.929150780  -0.196535544  -1.694446389
|143> H  -0.853226220  -0.356540544  -1.731154389
|144> C  -0.012043220   0.072038456   0.147912611
|145> N  -0.051933220   0.589305456   1.188242611
|146> *
|147>
|148>
|149> $new_job
|150>
|151> # 4mecn.malloum.etal.dset.1mecn.dset-orca.engrad-mp2.def2tzvp
|152> ! MP2 def2-TZVP EnGrad TightSCF FrozenCore
|153>
|154> %pal
|155>     nprocs 12
|156> end
|157>
|158> %maxcore 8000
|159>
|160> %scf
|161>     ConvForced true
|162> end
|163>
|164> *xyz 0 1
|165> C  -0.000000341   0.529406947   1.182170237
|166> H   0.896568659   1.146227947   1.298588237
|167> H  -0.000000341  -0.254514053   1.943998237
|168> H  -0.896569341   1.146226947   1.298588237
|169> C  -0.000000341  -0.068734053  -0.149903763
|170> N   0.000000659  -0.541638053  -1.211863763
|171> *
|172>
|173>
|174> $new_job
|175>
|176> # 4mecn.malloum.etal.dset.1mecn.dset-orca.engrad-mp2.def2tzvp
|177> ! MP2 def2-TZVP EnGrad TightSCF FrozenCore
|178>
|179> %pal
|180>     nprocs 12
|181> end
|182>
|183> %maxcore 8000
|184>
|185> %scf
|186>     ConvForced true
|187> end
|188>
|189> *xyz 0 1
|190> C  -0.000000025   0.535698988   1.179251187
|191> H   0.896603975   0.215985988   1.718828187
|192> H  -0.896602025   0.215983988   1.718829187
|193> H  -0.000001025   1.625438988   1.093722187
|194> C  -0.000000025  -0.068496012  -0.150084813
|195> N  -0.000000025  -0.548638012  -1.208500813
|196> *
|197>
|198>
|199> $new_job
|200>
|201> # 4mecn.malloum.etal.dset.1mecn.dset-orca.engrad-mp2.def2tzvp
|202> ! MP2 def2-TZVP EnGrad TightSCF FrozenCore
|203>
|204> %pal
|205>     nprocs 12
|206> end
|207>
|208> %maxcore 8000
|209>
|210> %scf
|211>     ConvForced true
|212> end
|213>
|214> *xyz 0 1
|215> C   0.049881574  -0.059043412  -1.292847450
|216> H  -0.834635426   0.413322588  -1.727562450
|217> H   0.108970574  -1.102997412  -1.610023450
|218> H   0.951988574   0.459665588  -1.630464450
|219> C  -0.011513426   0.007104588   0.164402550
|220> N  -0.049183426   0.061084588   1.325046550
|221> *
|222>
|223>
|224> $new_job
|225>
|226> # 4mecn.malloum.etal.dset.1mecn.dset-orca.engrad-mp2.def2tzvp
|227> ! MP2 def2-TZVP EnGrad TightSCF FrozenCore
|228>
|229> %pal
|230>     nprocs 12
|231> end
|232>
|233> %maxcore 8000
|234>
|235> %scf
|236>     ConvForced true
|237> end
|238>
|239> *xyz 0 1
|240> C  -0.049884425   0.059018602  -1.292848401
|241> H   0.834619575  -0.413376398  -1.727557401
|242> H  -0.108951425   1.102967602  -1.610044401
|243> H  -0.952003425  -0.459676398  -1.630452401
|244> C   0.011513575  -0.007102398   0.164402599
|245> N   0.049186575  -0.061058398   1.325047599
|246> *
|247>
|248>
|249> $new_job
|250>
|251> # 4mecn.malloum.etal.dset.1mecn.dset-orca.engrad-mp2.def2tzvp
|252> ! MP2 def2-TZVP EnGrad TightSCF FrozenCore
|253>
|254> %pal
|255>     nprocs 12
|256> end
|257>
|258> %maxcore 8000
|259>
|260> %scf
|261>     ConvForced true
|262> end
|263>
|264> *xyz 0 1
|265> C  -0.010615064   0.002922713   1.295208380
|266> H   0.845929936  -0.572812287   1.659642380
|267> H  -0.942851064  -0.447473287   1.649266380
|268> H   0.060257936   1.028141713   1.667743380
|269> C  -0.000617064   0.000699713  -0.164941620
|270> N   0.012268936  -0.003671287  -1.327227620
|271> *
|272>
|273>
|274> $new_job
|275>
|276> # 4mecn.malloum.etal.dset.1mecn.dset-orca.engrad-mp2.def2tzvp
|277> ! MP2 def2-TZVP EnGrad TightSCF FrozenCore
|278>
|279> %pal
|280>     nprocs 12
|281> end
|282>
|283> %maxcore 8000
|284>
|285> %scf
|286>     ConvForced true
|287> end
|288>
|289> *xyz 0 1
|290> C   0.010617964  -0.002901047   1.295207795
|291> H  -0.845924036   0.572842953   1.659632795
|292> H   0.942856964   0.447494953   1.649255795
|293> H  -0.060260036  -1.028114047   1.667759795
|294> C   0.000616964  -0.000702047  -0.164941205
|295> N  -0.012272036   0.003648953  -1.327227205
|296> *
|297>
|298>
|299> $new_job
|300>
|301> # 4mecn.malloum.etal.dset.1mecn.dset-orca.engrad-mp2.def2tzvp
|302> ! MP2 def2-TZVP EnGrad TightSCF FrozenCore
|303>
|304> %pal
|305>     nprocs 12
|306> end
|307>
|308> %maxcore 8000
|309>
|310> %scf
|311>     ConvForced true
|312> end
|313>
|314> *xyz 0 1
|315> C   0.119778540  -1.271667910  -0.213774236
|316> H   0.469261540  -1.773946910   0.691824764
|317> H   0.835722540  -1.451688910  -1.019714236
|318> H  -0.856328460  -1.675030910  -0.498609236
|319> C  -0.010643460   0.162977090   0.028547764
|320> N  -0.125859460   1.303260090   0.218290764
|321> *
|322>
|323>
|324> $new_job
|325>
|326> # 4mecn.malloum.etal.dset.1mecn.dset-orca.engrad-mp2.def2tzvp
|327> ! MP2 def2-TZVP EnGrad TightSCF FrozenCore
|328>
|329> %pal
|330>     nprocs 12
|331> end
|332>
|333> %maxcore 8000
|334>
|335> %scf
|336>     ConvForced true
|337> end
|338>
|339> *xyz 0 1
|340> C  -0.102914251   1.283508631   0.139508582
|341> H  -0.184420251   1.757705631  -0.841964418
|342> H   0.789409749   1.661200631   0.646471582
|343> H  -1.000084251   1.509779631   0.722299582
|344> C   0.012632749  -0.162891369  -0.019918418
|345> N   0.105839749  -1.315502369  -0.140447418
|346> *
|347>
|348>
|349> $new_job
|350>
|351> # 4mecn.malloum.etal.dset.1mecn.dset-orca.engrad-mp2.def2tzvp
|352> ! MP2 def2-TZVP EnGrad TightSCF FrozenCore
|353>
|354> %pal
|355>     nprocs 12
|356> end
|357>
|358> %maxcore 8000
|359>
|360> %scf
|361>     ConvForced true
|362> end
|363>
|364> *xyz 0 1
|365> C   0.102915786  -1.283508606  -0.139505755
|366> H   0.184415786  -1.757703606   0.841969245
|367> H   1.000090786  -1.509780606  -0.722289755
|368> H  -0.789404214  -1.661202606  -0.646473755
|369> C  -0.012633214   0.162891394   0.019918245
|370> N  -0.105841214   1.315502394   0.140444245
|371> *
|372>
|373>
|374> $new_job
|375>
|376> # 4mecn.malloum.etal.dset.1mecn.dset-orca.engrad-mp2.def2tzvp
|377> ! MP2 def2-TZVP EnGrad TightSCF FrozenCore
|378>
|379> %pal
|380>     nprocs 12
|381> end
|382>
|383> %maxcore 8000
|384>
|385> %scf
|386>     ConvForced true
|387> end
|388>
|389> *xyz 0 1
|390> C  -0.119783341   1.271667569   0.213772944
|391> H  -0.469268341   1.773944569  -0.691826056
|392> H   0.856322659   1.675034569   0.498608944
|393> H  -0.835727341   1.451686569   1.019712944
|394> C   0.010643659  -0.162977431  -0.028547056
|395> N   0.125864659  -1.303259431  -0.218290056
|396> *
|397>
|398>
|399> $new_job
|400>
|401> # 4mecn.malloum.etal.dset.1mecn.dset-orca.engrad-mp2.def2tzvp
|402> ! MP2 def2-TZVP EnGrad TightSCF FrozenCore
|403>
|404> %pal
|405>     nprocs 12
|406> end
|407>
|408> %maxcore 8000
|409>
|410> %scf
|411>     ConvForced true
|412> end
|413>
|414> *xyz 0 1
|415> C   0.070534553  -0.039748250  -1.292488911
|416> H  -0.933386447  -0.077346250  -1.723041911
|417> H   0.626854553  -0.924901250  -1.611309911
|418> H   0.584542553   0.858490750  -1.646599911
|419> C  -0.010989447   0.001773750   0.165526089
|420> N  -0.071060447   0.042904750   1.324704089
|421> *
|422>
|423>
|424> $new_job
|425>
|426> # 4mecn.malloum.etal.dset.1mecn.dset-orca.engrad-mp2.def2tzvp
|427> ! MP2 def2-TZVP EnGrad TightSCF FrozenCore
|428>
|429> %pal
|430>     nprocs 12
|431> end
|432>
|433> %maxcore 8000
|434>
|435> %scf
|436>     ConvForced true
|437> end
|438>
|439> *xyz 0 1
|440> C   0.001236822   0.001506489   1.295397536
|441> H   1.034781822  -0.037803511   1.651163536
|442> H  -0.549820178  -0.872984511   1.653228536
|443> H  -0.481027178   0.916565489   1.651124536
|444> C   0.000050822  -0.000200511  -0.163295464
|445> N  -0.001387178  -0.001535511  -1.327280464
|446> *
|447>
|448>
|449> $new_job
|450>
|451> # 4mecn.malloum.etal.dset.1mecn.dset-orca.engrad-mp2.def2tzvp
|452> ! MP2 def2-TZVP EnGrad TightSCF FrozenCore
|453>
|454> %pal
|455>     nprocs 12
|456> end
|457>
|458> %maxcore 8000
|459>
|460> %scf
|461>     ConvForced true
|462> end
|463>
|464> *xyz 0 1
|465> C  -0.078132211  -0.050930297  -1.291660986
|466> H  -1.123886211  -0.117979297  -1.602388986
|467> H   0.462263789  -0.934152297  -1.644273986
|468> H   0.365888789   0.845981703  -1.731016986
|469> C   0.007993789   0.009822703   0.165415014
|470> N   0.081418789   0.050080703   1.323854014
|471> *
|472>
|473>
|474> $new_job
|475>
|476> # 4mecn.malloum.etal.dset.1mecn.dset-orca.engrad-mp2.def2tzvp
|477> ! MP2 def2-TZVP EnGrad TightSCF FrozenCore
|478>
|479> %pal
|480>     nprocs 12
|481> end
|482>
|483> %maxcore 8000
|484>
|485> %scf
|486>     ConvForced true
|487> end
|488>
|489> *xyz 0 1
|490> C  -0.004022803   0.083310995  -1.292327591
|491> H   0.539958197  -0.760032005  -1.725332591
|492> H   0.472648197   1.014093995  -1.610232591
|493> H  -1.039325803   0.067492995  -1.644799591
|494> C   0.004282197  -0.010638005   0.165499409
|495> N   0.001700197  -0.085450005   1.324546409
|496> *
|497>
|498>
|499> $new_job
|500>
|501> # 4mecn.malloum.etal.dset.1mecn.dset-orca.engrad-mp2.def2tzvp
|502> ! MP2 def2-TZVP EnGrad TightSCF FrozenCore
|503>
|504> %pal
|505>     nprocs 12
|506> end
|507>
|508> %maxcore 8000
|509>
|510> %scf
|511>     ConvForced true
|512> end
|513>
|514> *xyz 0 1
|515> C  -0.100681040   1.290345026   0.001300731
|516> H  -0.647807040   1.619390026  -0.886030269
|517> H   0.893808960   1.747693026  -0.001585269
|518> H  -0.641996040   1.618018026   0.892695731
|519> C   0.013330960  -0.165423974  -0.000187269
|520> N   0.103390960  -1.323251974  -0.001320269
|521> *
|522>
|523>
|524> $new_job
|525>
|526> # 4mecn.malloum.etal.dset.1mecn.dset-orca.engrad-mp2.def2tzvp
|527> ! MP2 def2-TZVP EnGrad TightSCF FrozenCore
|528>
|529> %pal
|530>     nprocs 12
|531> end
|532>
|533> %maxcore 8000
|534>
|535> %scf
|536>     ConvForced true
|537> end
|538>
|539> *xyz 0 1
|540> C   1.290341418   0.100714769  -0.001462994
|541> H   1.747717418  -0.893761231   0.001506006
|542> H   1.619476418   0.647972769   0.885754006
|543> H   1.617898418   0.641913769  -0.892970994
|544> C  -0.165423582  -0.013332231   0.000208006
|545> N  -1.323248582  -0.103428231   0.001487006
|546> *
|547>
|548>
|549> $new_job
|550>
|551> # 4mecn.malloum.etal.dset.1mecn.dset-orca.engrad-mp2.def2tzvp
|552> ! MP2 def2-TZVP EnGrad TightSCF FrozenCore
|553>
|554> %pal
|555>     nprocs 12
|556> end
|557>
|558> %maxcore 8000
|559>
|560> %scf
|561>     ConvForced true
|562> end
|563>
|564> *xyz 0 1
|565> C   0.100644775  -1.290347828   0.001414397
|566> H   0.647893775  -1.619476828  -0.885809603
|567> H  -0.893855225  -1.747671828  -0.001578603
|568> H   0.641818775  -1.617965828   0.892915397
|569> C  -0.013327225   0.165424172  -0.000201603
|570> N  -0.103353225   1.323255172  -0.001437603
|571> *
|572>
|573>
|574> $new_job
|575>
|576> # 4mecn.malloum.etal.dset.1mecn.dset-orca.engrad-mp2.def2tzvp
|577> ! MP2 def2-TZVP EnGrad TightSCF FrozenCore
|578>
|579> %pal
|580>     nprocs 12
|581> end
|582>
|583> %maxcore 8000
|584>
|585> %scf
|586>     ConvForced true
|587> end
|588>
|589> *xyz 0 1
|590> C  -1.290343417  -0.100701877  -0.001191889
|591> H  -1.747710417   0.893778123   0.001684111
|592> H  -1.619308417  -0.647792877   0.886190111
|593> H  -1.618077417  -0.642062877  -0.892535889
|594> C   0.165423583   0.013334123   0.000174111
|595> N   1.323250583   0.103412123   0.001208111
|596> *
|597>
|598>                          ****END OF INPUT****
 Total Charge           Charge          ....    0
 Multiplicity           Mult            ....    1
 Number of Electrons    NEL             ....   22
MP2 TOTAL ENERGY:     -132.483125157 Eh
FINAL SINGLE POINT ENERGY      -132.483125156535
MP2 TOTAL ENERGY:     -132.483125110 Eh
FINAL SINGLE POINT ENERGY      -132.483125110181
MP2 TOTAL ENERGY:     -132.483125089 Eh
FINAL SINGLE POINT ENERGY      -132.483125088898
MP2 TOTAL ENERGY:     -132.483125109 Eh
FINAL SINGLE POINT ENERGY      -132.483125108669
MP2 TOTAL ENERGY:     -132.483134500 Eh
FINAL SINGLE POINT ENERGY      -132.483134499632
MP2 TOTAL ENERGY:     -132.483134501 Eh
FINAL SINGLE POINT ENERGY      -132.483134501320
FINAL SINGLE POINT ENERGY      -132.483140067158
FINAL SINGLE POINT ENERGY      -132.483135850837
FINAL SINGLE POINT ENERGY      -132.483136858096
FINAL SINGLE POINT ENERGY      -132.483136864450
FINAL SINGLE POINT ENERGY      -132.483131127654
FINAL SINGLE POINT ENERGY      -132.483159939757
FINAL SINGLE POINT ENERGY      -132.483154685645
FINAL SINGLE POINT ENERGY      -132.483113333529
MP2 TOTAL ENERGY:     -132.483154569 Eh
FINAL SINGLE POINT ENERGY      -132.483154568943
MP2 TOTAL ENERGY:     -132.483155511 Eh
FINAL SINGLE POINT ENERGY      -132.483155511474
MP2 TOTAL ENERGY:     -132.483171983 Eh
FINAL SINGLE POINT ENERGY      -132.483171983302
MP2 TOTAL ENERGY:     -132.483172042 Eh
FINAL SINGLE POINT ENERGY      -132.483172042096
MP2 TOTAL ENERGY:     -132.483172055 Eh
FINAL SINGLE POINT ENERGY      -132.483172054634

CARTESIAN COORDINATES (ANGSTROEM)
---------------------------------
  C     -1.290343   -0.100702   -0.001192
  H     -1.747710    0.893778    0.001684
  H     -1.619308   -0.647793    0.886190
  H     -1.618077   -0.642063   -0.892536
  C      0.165424    0.013334    0.000174
  N      1.323251    0.103412    0.001208

 Multiplicity           Mult            ....    1
 Number of Electrons    NEL             ....   22
 Basis Dimension        Dim             ....  111

ORBITAL ENERGIES
----------------

  NO   OCC          E(Eh)            E(eV)
   0   2.0000     -15.572355      -423.7453
   1   2.0000     -11.287024      -307.1355
   2   2.0000     -11.279659      -306.9351
   3   2.0000      -1.217087       -33.1186
   4   2.0000      -1.040527       -28.3142
   5   2.0000      -0.699053       -19.0222
   6   2.0000      -0.630080       -17.1454
   7   2.0000      -0.630072       -17.1451
   8   2.0000      -0.556143       -15.1334
   9   2.0000      -0.460410       -12.5284
  10   2.0000      -0.460333       -12.5263
  11   0.0000       0.118599         3.2272
  12   0.0000       0.172091         4.6828
  13   0.0000       0.172444         4.6924
  14   0.0000       0.201916         5.4944
  15   0.0000       0.224424         6.1069

MULLIKEN ATOMIC CHARGES
-----------------------
   0 C :   -0.284103
   1 H :    0.172239
   2 H :    0.172024
   3 H :    0.172024
   4 C :   -0.149033
   5 N :   -0.083151
Sum of atomic charges:    0.0000000

LOEWDIN ATOMIC CHARGES
----------------------
   0 C :   -0.283452
   1 H :    0.150824
   2 H :    0.150732
   3 H :    0.150733
   4 C :   -0.216625
   5 N :    0.047788

  Mayer bond orders larger than 0.100000
B(  0-C ,  1-H ) :   0.9171 B(  0-C ,  2-H ) :   0.9174 B(  0-C ,  3-H ) :   0.9174
B(  0-C ,  4-C ) :   0.9013 B(  4-C ,  5-N ) :   2.8416

MP2 TOTAL ENERGY:     -132.483172058 Eh
FINAL SINGLE POINT ENERGY      -132.483172057531

DIPOLE MOMENT
-------------
                                X             Y             Z
Electronic contribution:      3.13982       0.25059       0.00296
Nuclear contribution   :     -4.66950      -0.37101      -0.00437
                        -----------------------------------------
Total Dipole Moment    :     -1.52968      -0.12042      -0.00141
                        -----------------------------------------
Magnitude (a.u.)       :      1.53441
Magnitude (Debye)      :      3.90017

Rotational constants in cm-1:     5.273270     0.305813     0.305770
Rotational constants in MHz : 158088.654810  9168.031468  9166.767833

                             ****ORCA TERMINATED NORMALLY****
TOTAL RUN TIME: 0 days 0 hours 3 minutes 32 seconds 520 msec
