                         Program Version 4.2.0 -  RELEASE  -
|  1> # 6meoh.boyd.etal.dset.1meoh.dset-orca.engrad-mp2.def2tzvp
|  2> ! MP2 def2-TZVP EnGrad TightSCF FrozenCore
|  3>
|  4> %pal
|  5>     nprocs 12
|  6> end
|  7>
|  8> %maxcore 8000
|  9>
| 10> %scf
| 11>     ConvForced true
| 12> end
| 13>
| 14> *xyz 0 1
| 15> O  -0.077034887   0.016445541   0.689418868
| 16> H   0.840423350  -0.088584954   1.061007828
| 17> C   0.023494394  -0.011083210  -0.727658076
| 18> H  -0.987854202   0.078901616  -1.134675946
| 19> H   0.465066192  -0.947519994  -1.098024958
| 20> H   0.625297260   0.828206888  -1.101634750
| 21> *
| 22>
| 23>
| 24> $new_job
| 25>
| 26> # 6meoh.boyd.etal.dset.1meoh.dset-orca.engrad-mp2.def2tzvp
| 27> ! MP2 def2-TZVP EnGrad TightSCF FrozenCore
| 28>
| 29> %pal
| 30>     nprocs 12
| 31> end
| 32>
| 33> %maxcore 8000
| 34>
| 35> %scf
| 36>     ConvForced true
| 37> end
| 38>
| 39> *xyz 0 1
| 40> O   0.458989929  -0.399745280  -0.332276723
| 41> H   1.173723961   0.215588540  -0.650699391
| 42> C  -0.512275988   0.371768210   0.359440862
| 43> H  -1.267204462  -0.316336555   0.750932558
| 44> H  -1.007805394   1.086659519  -0.311652405
| 45> H  -0.080611968   0.929818411   1.203009452
| 46> *
| 47>
| 48>
| 49> $new_job
| 50>
| 51> # 6meoh.boyd.etal.dset.1meoh.dset-orca.engrad-mp2.def2tzvp
| 52> ! MP2 def2-TZVP EnGrad TightSCF FrozenCore
| 53>
| 54> %pal
| 55>     nprocs 12
| 56> end
| 57>
| 58> %maxcore 8000
| 59>
| 60> %scf
| 61>     ConvForced true
| 62> end
| 63>
| 64> *xyz 0 1
| 65> O  -0.436140348   0.441470045   0.310140403
| 66> H  -1.171386110  -0.121927886   0.672676113
| 67> C   0.490159625  -0.417610815  -0.339509875
| 68> H   1.273362710   0.207842829  -0.777755572
| 69> H   0.023351043  -1.004675768  -1.143650197
| 70> H   0.957385372  -1.113063336   0.371042895
| 71> *
| 72>
| 73>
| 74> $new_job
| 75>
| 76> # 6meoh.boyd.etal.dset.1meoh.dset-orca.engrad-mp2.def2tzvp
| 77> ! MP2 def2-TZVP EnGrad TightSCF FrozenCore
| 78>
| 79> %pal
| 80>     nprocs 12
| 81> end
| 82>
| 83> %maxcore 8000
| 84>
| 85> %scf
| 86>     ConvForced true
| 87> end
| 88>
| 89> *xyz 0 1
| 90> O  -0.228014404  -0.523925784  -0.393395577
| 91> H   0.010395396  -1.352677482   0.103106491
| 92> C   0.218493260   0.585904684   0.372751723
| 93> H  -0.102253993   1.496227992  -0.142097327
| 94> H   1.313959069   0.600066396   0.455318907
| 95> H  -0.206073478   0.591737358   1.386883294
| 96> *
| 97>
| 98>
| 99> $new_job
|100>
|101> # 6meoh.boyd.etal.dset.1meoh.dset-orca.engrad-mp2.def2tzvp
|102> ! MP2 def2-TZVP EnGrad TightSCF FrozenCore
|103>
|104> %pal
|105>     nprocs 12
|106> end
|107>
|108> %maxcore 8000
|109>
|110> %scf
|111>     ConvForced true
|112> end
|113>
|114> *xyz 0 1
|115> O   0.114653504  -0.018125956  -0.683762290
|116> H  -0.784044641   0.029145531  -1.107923800
|117> C  -0.063118454   0.016193034   0.724954995
|118> H   0.928716308   0.006403355   1.186364594
|119> H  -0.620397668  -0.861544583   1.079381820
|120> H  -0.592218778   0.920778460   1.057919841
|121> *
|122>
|123>
|124> $new_job
|125>
|126> # 6meoh.boyd.etal.dset.1meoh.dset-orca.engrad-mp2.def2tzvp
|127> ! MP2 def2-TZVP EnGrad TightSCF FrozenCore
|128>
|129> %pal
|130>     nprocs 12
|131> end
|132>
|133> %maxcore 8000
|134>
|135> %scf
|136>     ConvForced true
|137> end
|138>
|139> *xyz 0 1
|140> O   0.163906315   0.508384463   0.442432316
|141> H  -0.078271763   1.354832040  -0.021231357
|142> C  -0.152547843  -0.570980860  -0.424871593
|143> H   0.139965562  -1.498024106   0.076886739
|144> H   0.384315766  -0.509750158  -1.382658078
|145> H  -1.230165271  -0.613535133  -0.633576377
|146> *
|147>
|148>
|149> $new_job
|150>
|151> # 6meoh.boyd.etal.dset.1meoh.dset-orca.engrad-mp2.def2tzvp
|152> ! MP2 def2-TZVP EnGrad TightSCF FrozenCore
|153>
|154> %pal
|155>     nprocs 12
|156> end
|157>
|158> %maxcore 8000
|159>
|160> %scf
|161>     ConvForced true
|162> end
|163>
|164> *xyz 0 1
|165> O  -0.103409230   0.183833098   0.665090031
|166> H   0.810473136   0.252920323   1.058087107
|167> C   0.050700032  -0.194306473  -0.705259681
|168> H  -0.922166531  -0.079251314  -1.192293801
|169> H   0.377056271  -1.237287691  -0.811692527
|170> H   0.772063964   0.460737045  -1.208121952
|171> *
|172>
|173>
|174> $new_job
|175>
|176> # 6meoh.boyd.etal.dset.1meoh.dset-orca.engrad-mp2.def2tzvp
|177> ! MP2 def2-TZVP EnGrad TightSCF FrozenCore
|178>
|179> %pal
|180>     nprocs 12
|181> end
|182>
|183> %maxcore 8000
|184>
|185> %scf
|186>     ConvForced true
|187> end
|188>
|189> *xyz 0 1
|190> O   0.670541799  -0.167949121  -0.068521362
|191> H   1.124265718   0.626399975  -0.492544348
|192> C  -0.714514615   0.123900866   0.096292049
|193> H  -1.195647855  -0.761719192   0.520172120
|194> H  -1.190290891   0.354361983  -0.865328514
|195> H  -0.868609199   0.970653209   0.778015007
|196> *
|197>
|198>
|199> $new_job
|200>
|201> # 6meoh.boyd.etal.dset.1meoh.dset-orca.engrad-mp2.def2tzvp
|202> ! MP2 def2-TZVP EnGrad TightSCF FrozenCore
|203>
|204> %pal
|205>     nprocs 12
|206> end
|207>
|208> %maxcore 8000
|209>
|210> %scf
|211>     ConvForced true
|212> end
|213>
|214> *xyz 0 1
|215> O  -0.115180223   0.470757430   0.502028281
|216> H  -0.951594649   0.177485301   0.940961595
|217> C   0.168085013  -0.465194362  -0.542008374
|218> H   0.988495664  -0.052310953  -1.135861123
|219> H  -0.702486688  -0.625787622  -1.190230143
|220> H   0.491091772  -1.429121637  -0.125687280
|221> *
|222>
|223>
|224> $new_job
|225>
|226> # 6meoh.boyd.etal.dset.1meoh.dset-orca.engrad-mp2.def2tzvp
|227> ! MP2 def2-TZVP EnGrad TightSCF FrozenCore
|228>
|229> %pal
|230>     nprocs 12
|231> end
|232>
|233> %maxcore 8000
|234>
|235> %scf
|236>     ConvForced true
|237> end
|238>
|239> *xyz 0 1
|240> O  -0.252870346  -0.472631436  -0.438795508
|241> H  -0.096821554  -1.362538564  -0.015998890
|242> C   0.248550410   0.537035166   0.423613498
|243> H   0.079336701   1.503680700  -0.059737931
|244> H   1.327265217   0.417388283   0.592706978
|245> H  -0.257342231   0.544885796   1.400867812
|246> *
|247>
|248>
|249> $new_job
|250>
|251> # 6meoh.boyd.etal.dset.1meoh.dset-orca.engrad-mp2.def2tzvp
|252> ! MP2 def2-TZVP EnGrad TightSCF FrozenCore
|253>
|254> %pal
|255>     nprocs 12
|256> end
|257>
|258> %maxcore 8000
|259>
|260> %scf
|261>     ConvForced true
|262> end
|263>
|264> *xyz 0 1
|265> O   0.198275471  -0.124187211  -0.652605653
|266> H  -0.455823049   0.326834287  -1.238360588
|267> C  -0.163543377   0.100558959   0.702803650
|268> H   0.595445636  -0.375793058   1.329085554
|269> H  -1.138283998  -0.348591780   0.939772354
|270> H  -0.200065242   1.170691162   0.954606173
|271> *
|272>
|273>
|274> $new_job
|275>
|276> # 6meoh.boyd.etal.dset.1meoh.dset-orca.engrad-mp2.def2tzvp
|277> ! MP2 def2-TZVP EnGrad TightSCF FrozenCore
|278>
|279> %pal
|280>     nprocs 12
|281> end
|282>
|283> %maxcore 8000
|284>
|285> %scf
|286>     ConvForced true
|287> end
|288>
|289> *xyz 0 1
|290> O   0.108519925   0.620554175  -0.289776571
|291> H  -0.407114501   1.247647788   0.255902063
|292> C  -0.080247595  -0.671371298   0.263819194
|293> H   0.580586472  -1.359267827  -0.272829444
|294> H  -1.114759022  -1.032265732   0.140157386
|295> H   0.174824109  -0.706967653   1.333133163
|296> *
|297>
|298>
|299> $new_job
|300>
|301> # 6meoh.boyd.etal.dset.1meoh.dset-orca.engrad-mp2.def2tzvp
|302> ! MP2 def2-TZVP EnGrad TightSCF FrozenCore
|303>
|304> %pal
|305>     nprocs 12
|306> end
|307>
|308> %maxcore 8000
|309>
|310> %scf
|311>     ConvForced true
|312> end
|313>
|314> *xyz 0 1
|315> O   0.029066591  -0.165432122   0.676373722
|316> H   0.979143291  -0.098472078   0.926915949
|317> C  -0.086681704   0.165084013  -0.709047519
|318> H  -1.083485617  -0.142148134  -1.036960236
|319> H   0.668365420  -0.349694760  -1.314903644
|320> H   0.007471714   1.249308987  -0.863060468
|321> *
|322>
|323>
|324> $new_job
|325>
|326> # 6meoh.boyd.etal.dset.1meoh.dset-orca.engrad-mp2.def2tzvp
|327> ! MP2 def2-TZVP EnGrad TightSCF FrozenCore
|328>
|329> %pal
|330>     nprocs 12
|331> end
|332>
|333> %maxcore 8000
|334>
|335> %scf
|336>     ConvForced true
|337> end
|338>
|339> *xyz 0 1
|340> O   0.577603928   0.014039777  -0.384644498
|341> H   0.622519628   0.922678434  -0.781730272
|342> C  -0.593632923  -0.068794128   0.418101860
|343> H  -0.605226521  -1.057290924   0.885424751
|344> H  -1.502816815   0.037541350  -0.189207230
|345> H  -0.609857130   0.693958690   1.209404210
|346> *
|347>
|348>
|349> $new_job
|350>
|351> # 6meoh.boyd.etal.dset.1meoh.dset-orca.engrad-mp2.def2tzvp
|352> ! MP2 def2-TZVP EnGrad TightSCF FrozenCore
|353>
|354> %pal
|355>     nprocs 12
|356> end
|357>
|358> %maxcore 8000
|359>
|360> %scf
|361>     ConvForced true
|362> end
|363>
|364> *xyz 0 1
|365> O  -0.406102507  -0.404565512  -0.393727020
|366> H  -0.549711943  -1.259013869   0.125254170
|367> C   0.425175050   0.466688338   0.371883673
|368> H   0.515218322   1.409587788  -0.173994754
|369> H   1.427819163   0.042067754   0.510544968
|370> H  -0.013082741   0.668522300   1.357012332
|371> *
|372>
|373>
|374> $new_job
|375>
|376> # 6meoh.boyd.etal.dset.1meoh.dset-orca.engrad-mp2.def2tzvp
|377> ! MP2 def2-TZVP EnGrad TightSCF FrozenCore
|378>
|379> %pal
|380>     nprocs 12
|381> end
|382>
|383> %maxcore 8000
|384>
|385> %scf
|386>     ConvForced true
|387> end
|388>
|389> *xyz 0 1
|390> O   0.675688704   0.093033296   0.123351009
|391> H   0.813483686   1.063238110   0.073845055
|392> C  -0.698377743  -0.152010064  -0.122355013
|393> H  -0.845807240  -1.237129403  -0.105781562
|394> H  -1.018721389   0.215699067  -1.110886334
|395> H  -1.353232030   0.292707199   0.642682212
|396> *
|397>
|398>
|399> $new_job
|400>
|649> $new_job
|650>
|651> # 6meoh.boyd.etal.dset.1meoh.dset-orca.engrad-mp2.def2tzvp
|652> ! MP2 def2-TZVP EnGrad TightSCF FrozenCore
|653>
|654> %pal
|655>     nprocs 12
|656> end
|657>
|658> %maxcore 8000
|659>
|660> %scf
|661>     ConvForced true
|662> end
|663>
|664> *xyz 0 1
|665> O   0.163597378  -0.600921633   0.306324350
|666> H  -0.071148143  -1.309383331  -0.330721458
|667> C  -0.153067355   0.657116345  -0.275943026
|668> H   0.144057921   1.429199188   0.438739373
|669> H  -1.231282912   0.757393207  -0.463347277
|670> H   0.385312274   0.831850685  -1.219253008
|671> *
|672>
|673>
|674> $new_job
|675>
|676> # 6meoh.boyd.etal.dset.1meoh.dset-orca.engrad-mp2.def2tzvp
|677> ! MP2 def2-TZVP EnGrad TightSCF FrozenCore
|678>
|679> %pal
|680>     nprocs 12
|681> end
|682>
|683> %maxcore 8000
|684>
|685> %scf
|686>     ConvForced true
|687> end
|688>
|689> *xyz 0 1
|690> O  -0.253950794   0.318166360  -0.565912443
|691> H  -0.864526542   1.021039525  -0.251444853
|692> C   0.298612341  -0.369105701   0.561533496
|693> H   0.717913264  -1.308792409   0.196138035
|694> H  -0.468881366  -0.595634123   1.314335284
|695> H   1.088537584   0.230960706   1.033257487
|696> *
|697>
|698>
|699> $new_job
|700>
|701> # 6meoh.boyd.etal.dset.1meoh.dset-orca.engrad-mp2.def2tzvp
|702> ! MP2 def2-TZVP EnGrad TightSCF FrozenCore
|703>
|704> %pal
|705>     nprocs 12
|706> end
|707>
|708> %maxcore 8000
|709>
|710> %scf
|711>     ConvForced true
|712> end
|713>
|714> *xyz 0 1
|715> O   0.034157669   0.563456204   0.401935763
|716> H  -0.846444429   0.643721988   0.853382880
|717> C   0.018101183  -0.581339030  -0.437638457
|718> H   0.987629258  -0.637335158  -0.941214449
|719> H  -0.765670946  -0.510369066  -1.204961562
|720> H  -0.133449222  -1.513305716   0.127211773
|721> *
|722>
|723>
|724> $new_job
|725>
|726> # 6meoh.boyd.etal.dset.1meoh.dset-orca.engrad-mp2.def2tzvp
|727> ! MP2 def2-TZVP EnGrad TightSCF FrozenCore
|728>
|729> %pal
|730>     nprocs 12
|731> end
|732>
|733> %maxcore 8000
|734>
|735> %scf
|736>     ConvForced true
|737> end
|738>
|739> *xyz 0 1
|740> O  -0.416168283   0.549750186  -0.049726879
|741> H  -0.804987813   0.508796778  -0.952446405
|742> C   0.447716208  -0.558342612   0.104165109
|743> H   0.840364123  -0.534474239   1.125776306
|744> H   1.304535901  -0.526267517  -0.588157997
|745> H  -0.068483943  -1.521795188  -0.037028819
|746> *
|747>
|748>
|749> $new_job
|750>
|751> # 6meoh.boyd.etal.dset.1meoh.dset-orca.engrad-mp2.def2tzvp
|752> ! MP2 def2-TZVP EnGrad TightSCF FrozenCore
|753>
|754> %pal
|755>     nprocs 12
|756> end
|757>
|758> %maxcore 8000
|759>
|760> %scf
|761>     ConvForced true
|762> end
|763>
|764> *xyz 0 1
|765> O   0.123755809   0.021995557   0.681464861
|766> H   1.108202879  -0.014556439   0.779130663
|767> C  -0.185417663  -0.020817801  -0.702468904
|768> H  -1.275012715  -0.006555620  -0.799004677
|769> H   0.192029749  -0.931487835  -1.191415795
|770> H   0.219679130   0.851498405  -1.235930181
|771> *
|772>
|773>
|774> $new_job
|775>
|776> # 6meoh.boyd.etal.dset.1meoh.dset-orca.engrad-mp2.def2tzvp
|777> ! MP2 def2-TZVP EnGrad TightSCF FrozenCore
|778>
|779> %pal
|780>     nprocs 12
|781> end
|782>
|783> %maxcore 8000
|784>
|785> %scf
|786>     ConvForced true
|787> end
|788>
|789> *xyz 0 1
|790> O  -0.228925137  -0.473728922  -0.454856235
|791> H  -0.135777359  -1.348678926   0.006983870
|792> C   0.228384866   0.537935398   0.438291078
|793> H   0.212241651   1.488228667  -0.103255203
|794> H   1.254972701   0.338621510   0.771820495
|795> H  -0.418822632   0.631939757   1.322345359
|796> *
|797>
|798>
|799> $new_job
|800>
|801> # 6meoh.boyd.etal.dset.1meoh.dset-orca.engrad-mp2.def2tzvp
|802> ! MP2 def2-TZVP EnGrad TightSCF FrozenCore
|803>
|804> %pal
|805>     nprocs 12
|806> end
|807>
|808> %maxcore 8000
|809>
|810> %scf
|811>     ConvForced true
|812> end
|813>
|814> *xyz 0 1
|815> O   0.441253117   0.531724028   0.094011474
|816> H   1.320162361   0.255209527  -0.265597582
|817> C  -0.506564484  -0.528571361  -0.073745277
|818> H  -1.500383011  -0.122066822   0.131342027
|819> H  -0.296629322  -1.353828955   0.620267188
|820> H  -0.491542855  -0.921655847  -1.099641886
|821> *
|822>
|823>
|824> $new_job
|825>
|826> # 6meoh.boyd.etal.dset.1meoh.dset-orca.engrad-mp2.def2tzvp
|827> ! MP2 def2-TZVP EnGrad TightSCF FrozenCore
|828>
|829> %pal
|830>     nprocs 12
|831> end
|832>
|833> %maxcore 8000
|834>
|835> %scf
|836>     ConvForced true
|837> end
|838>
|839> *xyz 0 1
|840> O   0.014805126  -0.347620011   0.604296349
|841> H   0.340801795   0.295284406   1.272453743
|842> C  -0.035644599   0.318897998  -0.659249134
|843> H  -0.324824897  -0.427241101  -1.404328289
|844> H   0.948351746   0.719510275  -0.938279981
|845> H  -0.774606349   1.130720739  -0.667062699
|846> *
|847>
|848>
|849> $new_job
|850>
|851> # 6meoh.boyd.etal.dset.1meoh.dset-orca.engrad-mp2.def2tzvp
|852> ! MP2 def2-TZVP EnGrad TightSCF FrozenCore
|853>
|854> %pal
|855>     nprocs 12
|856> end
|857>
|858> %maxcore 8000
|859>
|860> %scf
|861>     ConvForced true
|862> end
|863>
|864> *xyz 0 1
|865> O   0.297831765  -0.305170208  -0.543788264
|866> H   0.578516405   0.434977465  -1.130221506
|867> C  -0.320048367   0.267118530   0.589186782
|868> H  -0.625379015  -0.550265696   1.251498604
|869> H  -1.221189302   0.847536331   0.331912371
|870> H   0.353852763   0.929167019   1.158363127
|871> *
|872>
|873>
|874> $new_job
|875>
|876> # 6meoh.boyd.etal.dset.1meoh.dset-orca.engrad-mp2.def2tzvp
|877> ! MP2 def2-TZVP EnGrad TightSCF FrozenCore
|878>
|879> %pal
|880>     nprocs 12
|881> end
|882>
|883> %maxcore 8000
|884>
|885> %scf
|886>     ConvForced true
|887> end
|888>
|889> *xyz 0 1
|890> O   0.326814884   0.209328452  -0.581611640
|891> H   1.204203460   0.516287480  -0.307836595
|892> C  -0.388592329  -0.233735766   0.582164982
|893> H  -1.343284487  -0.620845001   0.221798348
|894> H  -0.569521608   0.598802339   1.273436066
|895> H   0.151090821  -1.032007894   1.108257742
|896> *
|897>
|898>
|899> $new_job
|900>
|901> # 6meoh.boyd.etal.dset.1meoh.dset-orca.engrad-mp2.def2tzvp
|902> ! MP2 def2-TZVP EnGrad TightSCF FrozenCore
|903>
|904> %pal
|905>     nprocs 12
|906> end
|907>
|908> %maxcore 8000
|909>
|910> %scf
|911>     ConvForced true
|912> end
|913>
|914> *xyz 0 1
|915> O  -0.150345216  -0.030564946   0.684515766
|916> H   0.711415462  -0.159891911   1.141263025
|917> C   0.103573138   0.039356366  -0.733221068
|918> H  -0.799323022   0.441936483  -1.198666906
|919> H   0.288150383  -0.964464406  -1.131618269
|920> H   0.952227469   0.698647879  -0.940181429
|921> *
|922>
|923>
|924> $new_job
|925>
|926> # 6meoh.boyd.etal.dset.1meoh.dset-orca.engrad-mp2.def2tzvp
|927> ! MP2 def2-TZVP EnGrad TightSCF FrozenCore
|928>
|929> %pal
|930>     nprocs 12
|931> end
|932>
|933> %maxcore 8000
|934>
|935> %scf
|936>     ConvForced true
|937> end
|938>
|939> *xyz 0 1
|940> O   0.687926105   0.049591654   0.047061642
|941> H   0.872754531   0.990731171   0.231280334
|942> C  -0.712414158  -0.105866756  -0.058766396
|943> H  -0.908929991  -1.158335051  -0.287147921
|944> H  -1.152594352   0.501580982  -0.867212795
|945> H  -1.242510262   0.140303567   0.876267678
|946> *
|947>
|948>
|949> $new_job
|950>
|951> # 6meoh.boyd.etal.dset.1meoh.dset-orca.engrad-mp2.def2tzvp
|952> ! MP2 def2-TZVP EnGrad TightSCF FrozenCore
|953>
|954> %pal
|955>     nprocs 12
|956> end
|957>
|958> %maxcore 8000
|959>
|960> %scf
|961>     ConvForced true
|962> end
|963>
|964> *xyz 0 1
|965> O  -0.101655776  -0.615397127   0.316621532
|966> H  -0.398116013  -1.253189935  -0.374452160
|967> C   0.124065607   0.672220080  -0.285274940
|968> H   0.354876058   1.354529085   0.535053362
|969> H  -0.780689200   1.025680838  -0.794525888
|970> H   0.959283466   0.631853255  -0.992920317
|971> *
|972>
|973>
|974> $new_job
|975>
|976> # 6meoh.boyd.etal.dset.1meoh.dset-orca.engrad-mp2.def2tzvp
|977> ! MP2 def2-TZVP EnGrad TightSCF FrozenCore
|978>
|979> %pal
|980>     nprocs 12
|981> end
|982>
|983> %maxcore 8000
|984>
|985> %scf
|986>     ConvForced true
|987> end
|988>
|989> *xyz 0 1
|990> O  -0.274365971   0.297090756  -0.566447249
|991> H  -0.928369822   0.975377212  -0.264663399
|992> C   0.321189535  -0.345733707   0.563307964
|993> H   0.995042519  -1.115412198   0.180392493
|994> H  -0.436967812  -0.821673874   1.196891747
|995> H   0.898386435   0.365343970   1.167010061
|996> *
|997>
|998>
|999> $new_job
|1000>
|1001> # 6meoh.boyd.etal.dset.1meoh.dset-orca.engrad-mp2.def2tzvp
|1002> ! MP2 def2-TZVP EnGrad TightSCF FrozenCore
|1003>
|1004> %pal
|1005>     nprocs 12
|1006> end
|1007>
|1008> %maxcore 8000
|1009>
|1010> %scf
|1011>     ConvForced true
|1012> end
|1013>
|1014> *xyz 0 1
|1015> O   0.675612343  -0.122123582  -0.082323358
|1016> H   0.752183842  -0.616275315  -0.919902341
|1017> C  -0.693534174   0.153514361   0.133222118
|1018> H  -0.769096929   0.736256053   1.056810535
|1019> H  -1.299060592  -0.759151327   0.260644639
|1020> H  -1.144807909   0.748526019  -0.678203010
|1021> *
|1022>
|1023>
|1024> $new_job
|1025>
|1026> # 6meoh.boyd.etal.dset.1meoh.dset-orca.engrad-mp2.def2tzvp
|1027> ! MP2 def2-TZVP EnGrad TightSCF FrozenCore
|1028>
|1029> %pal
|1030>     nprocs 12
|1031> end
|1032>
|1033> %maxcore 8000
|1034>
|1035> %scf
|1036>     ConvForced true
|1037> end
|1038>
|1039> *xyz 0 1
|1040> O  -0.660897625  -0.137841094   0.153551213
|1041> H  -0.648671606  -0.705850838   0.949658555
|1042> C   0.674588402   0.174374019  -0.203912700
|1043> H   0.633976867   0.813254450  -1.090869678
|1044> H   1.262950700  -0.721610025  -0.455410149
|1045> H   1.204696947   0.724503267   0.588921146
|1046> *
|1047>
|1048>                          ****END OF INPUT****
 Total Charge           Charge          ....    0
 Multiplicity           Mult            ....    1
 Number of Electrons    NEL             ....   18
MP2 TOTAL ENERGY:     -115.506601132 Eh
FINAL SINGLE POINT ENERGY      -115.506601131520
MP2 TOTAL ENERGY:     -115.506575409 Eh
FINAL SINGLE POINT ENERGY      -115.506575408897
MP2 TOTAL ENERGY:     -115.506631722 Eh
FINAL SINGLE POINT ENERGY      -115.506631722145
MP2 TOTAL ENERGY:     -115.506603365 Eh
FINAL SINGLE POINT ENERGY      -115.506603364509
MP2 TOTAL ENERGY:     -115.506616176 Eh
FINAL SINGLE POINT ENERGY      -115.506616175745
MP2 TOTAL ENERGY:     -115.506614060 Eh
FINAL SINGLE POINT ENERGY      -115.506614059674
FINAL SINGLE POINT ENERGY      -115.506289755498
FINAL SINGLE POINT ENERGY      -115.505637287684
FINAL SINGLE POINT ENERGY      -115.506749961195
FINAL SINGLE POINT ENERGY      -115.506404670293
FINAL SINGLE POINT ENERGY      -115.506419792259
FINAL SINGLE POINT ENERGY      -115.507136315030
FINAL SINGLE POINT ENERGY      -115.506990556228
FINAL SINGLE POINT ENERGY      -115.507328324973
MP2 TOTAL ENERGY:     -115.506501038 Eh
FINAL SINGLE POINT ENERGY      -115.506501038273
MP2 TOTAL ENERGY:     -115.507277181 Eh
FINAL SINGLE POINT ENERGY      -115.507277181232
MP2 TOTAL ENERGY:     -115.506645519 Eh
FINAL SINGLE POINT ENERGY      -115.506645518884
MP2 TOTAL ENERGY:     -115.506643548 Eh
FINAL SINGLE POINT ENERGY      -115.506643548249
MP2 TOTAL ENERGY:     -115.507307995 Eh
FINAL SINGLE POINT ENERGY      -115.507307995415

CARTESIAN COORDINATES (ANGSTROEM)
---------------------------------
  O     -0.660898   -0.137841    0.153551
  H     -0.648672   -0.705851    0.949659
  C      0.674588    0.174374   -0.203913
  H      0.633977    0.813254   -1.090870
  H      1.262951   -0.721610   -0.455410
  H      1.204697    0.724503    0.588921

 Multiplicity           Mult            ....    1
 Number of Electrons    NEL             ....   18
 Basis Dimension        Dim             ....   86

ORBITAL ENERGIES
----------------

  NO   OCC          E(Eh)            E(eV)
   0   2.0000     -20.556523      -559.3714
   1   2.0000     -11.271824      -306.7219
   2   2.0000      -1.352239       -36.7963
   3   2.0000      -0.921017       -25.0621
   4   2.0000      -0.686606       -18.6835
   5   2.0000      -0.617080       -16.7916
   6   2.0000      -0.592745       -16.1294
   7   2.0000      -0.500167       -13.6102
   8   2.0000      -0.449317       -12.2265
   9   0.0000       0.136171         3.7054
  10   0.0000       0.175959         4.7881
  11   0.0000       0.229694         6.2503
  12   0.0000       0.230679         6.2771
  13   0.0000       0.255598         6.9552

MULLIKEN ATOMIC CHARGES
-----------------------
   0 O :   -0.495279
   1 H :    0.320742
   2 C :   -0.171286
   3 H :    0.129101
   4 H :    0.108347
   5 H :    0.108376
Sum of atomic charges:   -0.0000000

LOEWDIN ATOMIC CHARGES
----------------------
   0 O :   -0.097008
   1 H :    0.181100
   2 C :   -0.385623
   3 H :    0.110713
   4 H :    0.095398
   5 H :    0.095420

  Mayer bond orders larger than 0.100000
B(  0-O ,  1-H ) :   0.8457 B(  0-O ,  2-C ) :   0.9279 B(  2-C ,  3-H ) :   0.9382
B(  2-C ,  4-H ) :   0.9381 B(  2-C ,  5-H ) :   0.9382

MP2 TOTAL ENERGY:     -115.507291701 Eh
FINAL SINGLE POINT ENERGY      -115.507291701309

DIPOLE MOMENT
-------------
                                X             Y             Z
Electronic contribution:     -1.74542      -0.32743       0.35453
Nuclear contribution   :      2.29137       0.10141      -0.00492
                        -----------------------------------------
Total Dipole Moment    :      0.54595      -0.22602       0.34961
                        -----------------------------------------
Magnitude (a.u.)       :      0.68657
Magnitude (Debye)      :      1.74512

Rotational constants in cm-1:     4.239892     0.825573     0.795752
Rotational constants in MHz : 127108.759161 24750.043032 23856.036676

                             ****ORCA TERMINATED NORMALLY****
TOTAL RUN TIME: 0 days 0 hours 4 minutes 43 seconds 427 msec
