                         Program Version 4.2.0 -  RELEASE  -
|  1> # 16mecn.remya.etal.1mecn-orca.engrad-mp2.def2tzvp
|  2> ! MP2 def2-TZVP EnGrad TightSCF FrozenCore
|  3>
|  4> %pal
|  5>     nprocs 12
|  6> end
|  7>
|  8> %maxcore 8000
|  9>
| 10> %scf
| 11>     ConvForced true
| 12> end
| 13>
| 14> *xyz 0 1
| 15> C  -4.271749760  -3.667121641  -1.573818522
| 16> H  -3.984429760  -2.696691641  -1.986208522
| 17> H  -5.229439760  -3.974021641  -2.000858522
| 18> H  -3.508699760  -4.410401641  -1.823458522
| 19> C  -4.373099760  -3.562941641  -0.136548522
| 20> N  -4.441749760  -3.481791641   1.025492478
| 21> *
| 22>
| 23>
| 24> $new_job
| 25>
| 26> # 16mecn.remya.etal.1mecn-orca.engrad-mp2.def2tzvp
| 27> ! MP2 def2-TZVP EnGrad TightSCF FrozenCore
| 28>
| 29> %pal
| 30>     nprocs 12
| 31> end
| 32>
| 33> %maxcore 8000
| 34>
| 35> %scf
| 36>     ConvForced true
| 37> end
| 38>
| 39> *xyz 0 1
| 40> C   0.571988240  -4.873041641  -1.512468522
| 41> H   1.546120240  -4.656691641  -1.961168522
| 42> H  -0.172089760  -4.156671641  -1.874348522
| 43> H   0.245952240  -5.877821641  -1.790238522
| 44> C   0.674606240  -4.762581641  -0.075538522
| 45> N   0.767969240  -4.661371641   1.083299478
| 46> *
| 47>
| 48>
| 49> $new_job
| 50>
| 51> # 16mecn.remya.etal.1mecn-orca.engrad-mp2.def2tzvp
| 52> ! MP2 def2-TZVP EnGrad TightSCF FrozenCore
| 53>
| 54> %pal
| 55>     nprocs 12
| 56> end
| 57>
| 58> %maxcore 8000
| 59>
| 60> %scf
| 61>     ConvForced true
| 62> end
| 63>
| 64> *xyz 0 1
| 65> C  -2.235409760  -5.791661641   2.024902478
| 66> H  -3.012989760  -5.073281641   2.301677478
| 67> H  -1.255689760  -5.409791641   2.328833478
| 68> H  -2.423289760  -6.737501641   2.538194478
| 69> C  -2.247309760  -5.980371641   0.591423478
| 70> N  -2.249489760  -6.120941641  -0.566358522
| 71> *
| 72>
| 73>
| 74> $new_job
| 75>
| 76> # 16mecn.remya.etal.1mecn-orca.engrad-mp2.def2tzvp
| 77> ! MP2 def2-TZVP EnGrad TightSCF FrozenCore
| 78>
| 79> %pal
| 80>     nprocs 12
| 81> end
| 82>
| 83> %maxcore 8000
| 84>
| 85> %scf
| 86>     ConvForced true
| 87> end
| 88>
| 89> *xyz 0 1
| 90> C   3.768482240  -3.553701641   1.573175478
| 91> H   4.764974240  -3.218391641   1.876085478
| 92> H   3.566717240  -4.541911641   1.991396478
| 93> H   3.006556240  -2.863151641   1.945378478
| 94> C   3.697552240  -3.602391641   0.131048478
| 95> N   3.646349240  -3.639391641  -1.034038522
| 96> *
| 97>
| 98>
| 99> $new_job
|100>
|101> # 16mecn.remya.etal.1mecn-orca.engrad-mp2.def2tzvp
|102> ! MP2 def2-TZVP EnGrad TightSCF FrozenCore
|103>
|104> %pal
|105>     nprocs 12
|106> end
|107>
|108> %maxcore 8000
|109>
|110> %scf
|111>     ConvForced true
|112> end
|113>
|114> *xyz 0 1
|115> C  -1.359539760  -2.150531641   1.696637478
|116> H  -2.321429760  -2.476791641   2.103527478
|117> H  -1.155509760  -1.123161641   2.010018478
|118> H  -0.560239760  -2.804051641   2.057794478
|119> C  -1.405509760  -2.205961641   0.254029478
|120> N  -1.448639760  -2.248841641  -0.911748522
|121> *
|122>
|123>
|124> $new_job
|125>
|126> # 16mecn.remya.etal.1mecn-orca.engrad-mp2.def2tzvp
|127> ! MP2 def2-TZVP EnGrad TightSCF FrozenCore
|128>
|129> %pal
|130>     nprocs 12
|131> end
|132>
|133> %maxcore 8000
|134>
|135> %scf
|136>     ConvForced true
|137> end
|138>
|139> *xyz 0 1
|140> C   1.612991240  -1.048491641  -1.735508522
|141> H   2.408473240  -1.704711641  -2.100048522
|142> H   1.796394240  -0.030431641  -2.089738522
|143> H   0.644011240  -1.404111641  -2.100178522
|144> C   1.609928240  -1.057971641  -0.291438522
|145> N   1.597683240  -1.069111641   0.875749478
|146> *
|147>
|148>
|149> $new_job
|150>
|151> # 16mecn.remya.etal.1mecn-orca.engrad-mp2.def2tzvp
|152> ! MP2 def2-TZVP EnGrad TightSCF FrozenCore
|153>
|154> %pal
|155>     nprocs 12
|156> end
|157>
|158> %maxcore 8000
|159>
|160> %scf
|161>     ConvForced true
|162> end
|163>
|164> *xyz 0 1
|165> C   4.654876240   0.145018359   1.528686478
|166> H   5.445135240  -0.551721641   1.823739478
|167> H   3.690728240  -0.216331641   1.901085478
|168> H   4.857100240   1.134677359   1.947972478
|169> C   4.606316240   0.230677359   0.086984478
|170> N   4.567844240   0.301640359  -1.077218522
|171> *
|172>
|173>
|174> $new_job
|175>
|176> # 16mecn.remya.etal.1mecn-orca.engrad-mp2.def2tzvp
|177> ! MP2 def2-TZVP EnGrad TightSCF FrozenCore
|178>
|179> %pal
|180>     nprocs 12
|181> end
|182>
|183> %maxcore 8000
|184>
|185> %scf
|186>     ConvForced true
|187> end
|188>
|189> *xyz 0 1
|190> C   6.477276240  -2.212811641  -1.998258522
|191> H   5.628757240  -2.839501641  -2.287788522
|192> H   7.384166240  -2.573791641  -2.488978522
|193> H   6.268074240  -1.188181641  -2.315768522
|194> C   6.622338240  -2.253091641  -0.560318522
|195> N   6.724013240  -2.285651641   0.600978478
|196> *
|197>
|198>
|199> $new_job
|200>
|201> # 16mecn.remya.etal.1mecn-orca.engrad-mp2.def2tzvp
|202> ! MP2 def2-TZVP EnGrad TightSCF FrozenCore
|203>
|204> %pal
|205>     nprocs 12
|206> end
|207>
|208> %maxcore 8000
|209>
|210> %scf
|211>     ConvForced true
|212> end
|213>
|214> *xyz 0 1
|215> C   4.272429240   3.665396359  -1.574768522
|216> H   3.983960240   2.694367359  -1.984998522
|217> H   5.230450240   3.970347359  -2.002598522
|218> H   3.510147240   4.408941359  -1.825898522
|219> C   4.373701240   3.564122359  -0.137258522
|220> N   4.442067240   3.485207359   1.024958478
|221> *
|222>
|223>
|224> $new_job
|225>
|226> # 16mecn.remya.etal.1mecn-orca.engrad-mp2.def2tzvp
|227> ! MP2 def2-TZVP EnGrad TightSCF FrozenCore
|228>
|229> %pal
|230>     nprocs 12
|231> end
|232>
|233> %maxcore 8000
|234>
|235> %scf
|236>     ConvForced true
|237> end
|238>
|239> *xyz 0 1
|240> C  -0.571859760   4.872674359  -1.511078522
|241> H  -1.545889760   4.656852359  -1.960338522
|242> H   0.172183240   4.156414359  -1.873098522
|243> H  -0.245439760   5.877550359  -1.788328522
|244> C  -0.675029760   4.761511359  -0.074298522
|245> N  -0.769059760   4.659650359   1.084463478
|246> *
|247>
|248>
|249> $new_job
|250>
|251> # 16mecn.remya.etal.1mecn-orca.engrad-mp2.def2tzvp
|252> ! MP2 def2-TZVP EnGrad TightSCF FrozenCore
|253>
|254> %pal
|255>     nprocs 12
|256> end
|257>
|258> %maxcore 8000
|259>
|260> %scf
|261>     ConvForced true
|262> end
|263>
|264> *xyz 0 1
|265> C   2.237366240   5.791592359   2.024150478
|266> H   3.014908240   5.072773359   2.299876478
|267> H   1.257761240   5.410050359   2.328840478
|268> H   2.426141240   6.737147359   2.537612478
|269> C   2.248053240   5.980884359   0.590747478
|270> N   2.249329240   6.121927359  -0.566988522
|271> *
|272>
|273>
|274> $new_job
|275>
|276> # 16mecn.remya.etal.1mecn-orca.engrad-mp2.def2tzvp
|277> ! MP2 def2-TZVP EnGrad TightSCF FrozenCore
|278>
|279> %pal
|280>     nprocs 12
|281> end
|282>
|283> %maxcore 8000
|284>
|285> %scf
|286>     ConvForced true
|287> end
|288>
|289> *xyz 0 1
|290> C  -3.769129760   3.554068359   1.572799478
|291> H  -4.765379760   3.219130359   1.876870478
|292> H  -3.566539760   4.542296359   1.990653478
|293> H  -3.007039760   2.863347359   1.944311478
|294> C  -3.699719760   3.602526359   0.130588478
|295> N  -3.649619760   3.639515359  -1.034538522
|296> *
|297>
|298>
|299> $new_job
|300>
|301> # 16mecn.remya.etal.1mecn-orca.engrad-mp2.def2tzvp
|302> ! MP2 def2-TZVP EnGrad TightSCF FrozenCore
|303>
|304> %pal
|305>     nprocs 12
|306> end
|307>
|308> %maxcore 8000
|309>
|310> %scf
|311>     ConvForced true
|312> end
|313>
|314> *xyz 0 1
|315> C   1.361684240   2.150848359   1.697414478
|316> H   2.323475240   2.477255359   2.104440478
|317> H   1.156867240   1.123981359   2.012034478
|318> H   0.562529240   2.805297359   2.057245478
|319> C   1.408370240   2.204362359   0.254718478
|320> N   1.451772240   2.245741359  -0.911128522
|321> *
|322>
|323>
|324> $new_job
|325>
|326> # 16mecn.remya.etal.1mecn-orca.engrad-mp2.def2tzvp
|327> ! MP2 def2-TZVP EnGrad TightSCF FrozenCore
|328>
|329> %pal
|330>     nprocs 12
|331> end
|332>
|333> %maxcore 8000
|334>
|335> %scf
|336>     ConvForced true
|337> end
|338>
|339> *xyz 0 1
|340> C  -1.610389760   1.048987359  -1.734348522
|341> H  -2.406389760   1.704151359  -2.099708522
|342> H  -1.791359760   0.030856359  -2.089818522
|343> H  -0.641319760   1.406572359  -2.096978522
|344> C  -1.609869760   1.057261359  -0.290258522
|345> N  -1.599659760   1.067632359   0.876980478
|346> *
|347>
|348>
|349> $new_job
|350>
|351> # 16mecn.remya.etal.1mecn-orca.engrad-mp2.def2tzvp
|352> ! MP2 def2-TZVP EnGrad TightSCF FrozenCore
|353>
|354> %pal
|355>     nprocs 12
|356> end
|357>
|358> %maxcore 8000
|359>
|360> %scf
|361>     ConvForced true
|362> end
|363>
|364> *xyz 0 1
|365> C  -4.657049760  -0.143211641   1.528984478
|366> H  -5.447459760   0.553172359   1.824422478
|367> H  -3.692889760   0.218627359   1.900806478
|368> H  -4.858479760  -1.132941641   1.948487478
|369> C  -4.609159760  -0.229081641   0.087265478
|370> N  -4.570989760  -0.300491641  -1.076898522
|371> *
|372>
|373>
|374> $new_job
|375>
|376> # 16mecn.remya.etal.1mecn-orca.engrad-mp2.def2tzvp
|377> ! MP2 def2-TZVP EnGrad TightSCF FrozenCore
|378>
|379> %pal
|380>     nprocs 12
|381> end
|382>
|383> %maxcore 8000
|384>
|385> %scf
|386>     ConvForced true
|387> end
|388>
|389> *xyz 0 1
|390> C  -6.476379760   2.213435359  -1.999318522
|391> H  -5.628549760   2.841265359  -2.288478522
|392> H  -7.383669760   2.573545359  -2.489948522
|393> H  -6.265929760   1.189153359  -2.317198522
|394> C  -6.621729760   2.252879359  -0.561358522
|395> N  -6.723669760   2.284770359   0.599930478
|396> *
|397>
|398>                          ****END OF INPUT****
 Total Charge           Charge          ....    0
 Multiplicity           Mult            ....    1
 Number of Electrons    NEL             ....   22
MP2 TOTAL ENERGY:     -132.483105150 Eh
FINAL SINGLE POINT ENERGY      -132.483105150107
MP2 TOTAL ENERGY:     -132.483070179 Eh
FINAL SINGLE POINT ENERGY      -132.483070178725
MP2 TOTAL ENERGY:     -132.483128948 Eh
FINAL SINGLE POINT ENERGY      -132.483128948151
MP2 TOTAL ENERGY:     -132.483065758 Eh
FINAL SINGLE POINT ENERGY      -132.483065757878
MP2 TOTAL ENERGY:     -132.483063497 Eh
FINAL SINGLE POINT ENERGY      -132.483063496555
MP2 TOTAL ENERGY:     -132.483049650 Eh
FINAL SINGLE POINT ENERGY      -132.483049650194
FINAL SINGLE POINT ENERGY      -132.483091094914
FINAL SINGLE POINT ENERGY      -132.483113973402
FINAL SINGLE POINT ENERGY      -132.483104756900
FINAL SINGLE POINT ENERGY      -132.483069596247
MP2 TOTAL ENERGY:     -132.483128910 Eh
FINAL SINGLE POINT ENERGY      -132.483128909734
MP2 TOTAL ENERGY:     -132.483065975 Eh
FINAL SINGLE POINT ENERGY      -132.483065974562
MP2 TOTAL ENERGY:     -132.483064150 Eh
FINAL SINGLE POINT ENERGY      -132.483064149585
MP2 TOTAL ENERGY:     -132.483049061 Eh
FINAL SINGLE POINT ENERGY      -132.483049060681
MP2 TOTAL ENERGY:     -132.483091348 Eh
FINAL SINGLE POINT ENERGY      -132.483091348435

CARTESIAN COORDINATES (ANGSTROEM)
---------------------------------
  C     -6.476380    2.213435   -1.999319
  H     -5.628550    2.841265   -2.288479
  H     -7.383670    2.573545   -2.489949
  H     -6.265930    1.189153   -2.317199
  C     -6.621730    2.252879   -0.561359
  N     -6.723670    2.284770    0.599930

 Multiplicity           Mult            ....    1
 Number of Electrons    NEL             ....   22
 Basis Dimension        Dim             ....  111

ORBITAL ENERGIES
----------------

  NO   OCC          E(Eh)            E(eV)
   0   2.0000     -15.573417      -423.7742
   1   2.0000     -11.285424      -307.0920
   2   2.0000     -11.280364      -306.9543
   3   2.0000      -1.215103       -33.0646
   4   2.0000      -1.044154       -28.4129
   5   2.0000      -0.701161       -19.0796
   6   2.0000      -0.633492       -17.2382
   7   2.0000      -0.630260       -17.1503
   8   2.0000      -0.556258       -15.1366
   9   2.0000      -0.458490       -12.4761
  10   2.0000      -0.457779       -12.4568
  11   0.0000       0.118701         3.2300
  12   0.0000       0.170968         4.6523
  13   0.0000       0.171078         4.6553
  14   0.0000       0.202000         5.4967
  15   0.0000       0.223808         6.0901

MULLIKEN ATOMIC CHARGES
-----------------------
   0 C :   -0.280623
   1 H :    0.172196
   2 H :    0.172459
   3 H :    0.172197
   4 C :   -0.145830
   5 N :   -0.090399
Sum of atomic charges:   -0.0000000

LOEWDIN ATOMIC CHARGES
----------------------
   0 C :   -0.284041
   1 H :    0.153145
   2 H :    0.151181
   3 H :    0.152362
   4 C :   -0.219339
   5 N :    0.046692

  Mayer bond orders larger than 0.100000
B(  0-C ,  1-H ) :   0.9168 B(  0-C ,  2-H ) :   0.9160 B(  0-C ,  3-H ) :   0.9168
B(  0-C ,  4-C ) :   0.9024 B(  4-C ,  5-N ) :   2.8371

MP2 TOTAL ENERGY:     -132.483114152 Eh
FINAL SINGLE POINT ENERGY      -132.483114151567

DIPOLE MOMENT
-------------
                                X             Y             Z
Electronic contribution:     -0.33723       0.08937       3.10257
Nuclear contribution   :      0.48770      -0.13237      -4.62684
                        -----------------------------------------
Total Dipole Moment    :      0.15047      -0.04300      -1.52427
                        -----------------------------------------
Magnitude (a.u.)       :      1.53228
Magnitude (Debye)      :      3.89474

Rotational constants in cm-1:     5.266447     0.308388     0.308166
Rotational constants in MHz : 157884.122066  9245.230037  9238.598009

                             ****ORCA TERMINATED NORMALLY****
TOTAL RUN TIME: 0 days 0 hours 9 minutes 41 seconds 179 msec
