                         Program Version 4.2.0 -  RELEASE  -
|  1> # 6h2o.temelso.etal.dset.2h2o-orca.engrad-mp2.augccpvtz-50.to.99
|  2> ! MP2 aug-cc-pVTZ EnGrad TightSCF FrozenCore
|  3>
|  4> %pal
|  5>     nprocs 12
|  6> end
|  7>
|  8> %maxcore 8000
|  9>
| 10> %scf
| 11>     ConvForced true
| 12> end
| 13>
| 14> *xyz 0 1
| 15> O   1.111330617   0.240059671  -0.797377004
| 16> H   0.931430617  -0.087240329  -1.687077004
| 17> H   0.335430617  -0.052840329  -0.253877004
| 18> O  -1.006869383  -0.250040329   0.819922996
| 19> H  -1.074869383   0.615959671   1.258722996
| 20> H  -1.850269383  -0.317440329   0.324322996
| 21> *
| 22>
| 23>
| 24> $new_job
| 25>
| 26> # 6h2o.temelso.etal.dset.2h2o-orca.engrad-mp2.augccpvtz-50.to.99
| 27> ! MP2 aug-cc-pVTZ EnGrad TightSCF FrozenCore
| 28>
| 29> %pal
| 30>     nprocs 12
| 31> end
| 32>
| 33> %maxcore 8000
| 34>
| 35> %scf
| 36>     ConvForced true
| 37> end
| 38>
| 39> *xyz 0 1
| 40> O   2.291014554   0.151348616  -0.057352485
| 41> H   2.111114554  -0.175951384  -0.947052485
| 42> H   1.515114554  -0.141551384   0.486147515
| 43> O  -2.184785446  -0.150151384   0.054247515
| 44> H  -3.027185446  -0.522051384   0.342847515
| 45> H  -2.285385446   0.820548616   0.167347515
| 46> *
| 47>
| 48>
| 49> $new_job
| 50>
| 51> # 6h2o.temelso.etal.dset.2h2o-orca.engrad-mp2.augccpvtz-50.to.99
| 52> ! MP2 aug-cc-pVTZ EnGrad TightSCF FrozenCore
| 53>
| 54> %pal
| 55>     nprocs 12
| 56> end
| 57>
| 58> %maxcore 8000
| 59>
| 60> %scf
| 61>     ConvForced true
| 62> end
| 63>
| 64> *xyz 0 1
| 65> O   2.218524502  -1.213639940  -0.302619598
| 66> H   2.038624502  -1.540939940  -1.192319598
| 67> H   1.442624502  -1.506539940   0.240880402
| 68> O  -2.216275498   1.206960060   0.330480402
| 69> H  -2.097175498   1.844760060  -0.384119598
| 70> H  -1.419775498   1.308760060   0.893280402
| 71> *
| 72>
| 73>
| 74> $new_job
| 75>
| 76> # 6h2o.temelso.etal.dset.2h2o-orca.engrad-mp2.augccpvtz-50.to.99
| 77> ! MP2 aug-cc-pVTZ EnGrad TightSCF FrozenCore
| 78>
| 79> %pal
| 80>     nprocs 12
| 81> end
| 82>
| 83> %maxcore 8000
| 84>
| 85> %scf
| 86>     ConvForced true
| 87> end
| 88>
| 89> *xyz 0 1
| 90> O   1.083256325  -1.186534648  -1.125000692
| 91> H   0.903356325  -1.513834648  -2.014700692
| 92> H   0.307356325  -1.479434648  -0.581500692
| 93> O  -1.080643675   1.183765352   1.125599308
| 94> H  -1.003443675   1.658165352   1.962199308
| 95> H  -0.248743675   1.379065352   0.624499308
| 96> *
| 97>
| 98>
| 99> $new_job
|100>
|101> # 6h2o.temelso.etal.dset.2h2o-orca.engrad-mp2.augccpvtz-50.to.99
|102> ! MP2 aug-cc-pVTZ EnGrad TightSCF FrozenCore
|103>
|104> %pal
|105>     nprocs 12
|106> end
|107>
|108> %maxcore 8000
|109>
|110> %scf
|111>     ConvForced true
|112> end
|113>
|114> *xyz 0 1
|115> O   1.230672567  -0.133389045   0.743202217
|116> H   1.162672567   0.732610955   1.182002217
|117> H   0.387272567  -0.200789045   0.247602217
|118> O  -1.126927433   0.055210955  -0.762497783
|119> H  -1.969327433  -0.316689045  -0.473897783
|120> H  -1.227527433   1.025910955  -0.649397783
|121> *
|122>
|123>
|124> $new_job
|125>
|126> # 6h2o.temelso.etal.dset.2h2o-orca.engrad-mp2.augccpvtz-50.to.99
|127> ! MP2 aug-cc-pVTZ EnGrad TightSCF FrozenCore
|128>
|129> %pal
|130>     nprocs 12
|131> end
|132>
|133> %maxcore 8000
|134>
|135> %scf
|136>     ConvForced true
|137> end
|138>
|139> *xyz 0 1
|140> O   1.158182515  -1.498377600   0.497935104
|141> H   1.090182515  -0.632377600   0.936735104
|142> H   0.314782515  -1.565777600   0.002335104
|143> O  -1.158417485   1.412322400  -0.486264896
|144> H  -1.039317485   2.050122400  -1.200864896
|145> H  -0.361917485   1.514122400   0.076535104
|146> *
|147>
|148>
|149> $new_job
|150>
|151> # 6h2o.temelso.etal.dset.2h2o-orca.engrad-mp2.augccpvtz-50.to.99
|152> ! MP2 aug-cc-pVTZ EnGrad TightSCF FrozenCore
|153>
|154> %pal
|155>     nprocs 12
|156> end
|157>
|158> %maxcore 8000
|159>
|160> %scf
|161>     ConvForced true
|162> end
|163>
|164> *xyz 0 1
|165> O   0.022914337  -1.471272309  -0.324445990
|166> H  -0.045085663  -0.605272309   0.114354010
|167> H  -0.820485663  -1.538672309  -0.820045990
|168> O  -0.022785663   1.389127691   0.308854010
|169> H   0.054414337   1.863527691   1.145454010
|170> H   0.809114337   1.584427691  -0.192245990
|171> *
|172>
|173>
|174> $new_job
|175>
|176> # 6h2o.temelso.etal.dset.2h2o-orca.engrad-mp2.augccpvtz-50.to.99
|177> ! MP2 aug-cc-pVTZ EnGrad TightSCF FrozenCore
|178>
|179> %pal
|180>     nprocs 12
|181> end
|182>
|183> %maxcore 8000
|184>
|185> %scf
|186>     ConvForced true
|187> end
|188>
|189> *xyz 0 1
|190> O  -0.019733548  -1.398488656  -0.267740377
|191> H  -0.862133548  -1.770388656   0.020859623
|192> H  -0.120333548  -0.427788656  -0.154640377
|193> O   0.021266452   1.323611344   0.253759623
|194> H   0.140366452   1.961411344  -0.460840377
|195> H   0.817766452   1.425411344   0.816559623
|196> *
|197>
|198>
|199> $new_job
|200>
|201> # 6h2o.temelso.etal.dset.2h2o-orca.engrad-mp2.augccpvtz-50.to.99
|202> ! MP2 aug-cc-pVTZ EnGrad TightSCF FrozenCore
|203>
|204> %pal
|205>     nprocs 12
|206> end
|207>
|208> %maxcore 8000
|209>
|210> %scf
|211>     ConvForced true
|212> end
|213>
|214> *xyz 0 1
|215> O  -1.155001726  -1.371383364  -1.090121471
|216> H  -1.997401726  -1.743283364  -0.801521471
|217> H  -1.255601726  -0.400683364  -0.977021471
|218> O   1.156898274   1.300416636   1.048878529
|219> H   1.234098274   1.774816636   1.885478529
|220> H   1.988798274   1.495716636   0.547778529
|221> *
|222>
|223>
|224> $new_job
|225>
|226> # 6h2o.temelso.etal.dset.2h2o-orca.engrad-mp2.augccpvtz-50.to.99
|227> ! MP2 aug-cc-pVTZ EnGrad TightSCF FrozenCore
|228>
|229> %pal
|230>     nprocs 12
|231> end
|232>
|233> %maxcore 8000
|234>
|235> %scf
|236>     ConvForced true
|237> end
|238>
|239> *xyz 0 1
|240> O  -1.186491778  -0.014271920  -0.813888584
|241> H  -1.067391778   0.623528080  -1.528488584
|242> H  -0.389991778   0.087528080  -0.251088584
|243> O   1.084408222  -0.064571920   0.803611416
|244> H   1.161608222   0.409828080   1.640211416
|245> H   1.916308222   0.130728080   0.302511416
|246> *
|247>
|248>
|249> $new_job
|250>
|251> # 6h2o.temelso.etal.dset.2h2o-orca.engrad-mp2.augccpvtz-50.to.99
|252> ! MP2 aug-cc-pVTZ EnGrad TightSCF FrozenCore
|253>
|254> %pal
|255>     nprocs 12
|256> end
|257>
|258> %maxcore 8000
|259>
|260> %scf
|261>     ConvForced true
|262> end
|263>
|264> *xyz 0 1
|265> O   1.280260394   1.993795367  -0.039443558
|266> H   1.273160394   2.461295367   0.804356442
|267> H   0.404360394   1.541895367  -0.081243558
|268> O  -1.258939606  -1.942504633  -0.036043558
|269> H  -0.452739606  -2.446904633  -0.297943558
|270> H  -1.563239606  -2.370504633   0.773156442
|271> *
|272>
|273>
|274> $new_job
|275>
|276> # 6h2o.temelso.etal.dset.2h2o-orca.engrad-mp2.augccpvtz-50.to.99
|277> ! MP2 aug-cc-pVTZ EnGrad TightSCF FrozenCore
|278>
|279> %pal
|280>     nprocs 12
|281> end
|282>
|283> %maxcore 8000
|284>
|285> %scf
|286>     ConvForced true
|287> end
|288>
|289> *xyz 0 1
|290> O  -1.068452573   0.685973493   0.334280949
|291> H  -1.075552573   1.153473493   1.178080949
|292> H  -1.944352573   0.234073493   0.292480949
|293> O   1.145847427  -0.739026507  -0.348519051
|294> H   1.450047427  -0.312826507  -1.158719051
|295> H   0.341247427  -0.232526507  -0.085819051
|296> *
|297>
|298>
|299> $new_job
|300>
|301> # 6h2o.temelso.etal.dset.2h2o-orca.engrad-mp2.augccpvtz-50.to.99
|302> ! MP2 aug-cc-pVTZ EnGrad TightSCF FrozenCore
|303>
|304> %pal
|305>     nprocs 12
|306> end
|307>
|308> %maxcore 8000
|309>
|310> %scf
|311>     ConvForced true
|312> end
|313>
|314> *xyz 0 1
|315> O   0.161455595   2.679197203   0.339650000
|316> H   0.154355595   3.146697203   1.183450000
|317> H  -0.714444405   2.227297203   0.297850000
|318> O  -0.161444405  -2.679202797  -0.339650000
|319> H   0.715155595  -2.228802797  -0.296950000
|320> H  -0.155244405  -3.145102797  -1.184350000
|321> *
|322>
|323>
|324> $new_job
|325>
|326> # 6h2o.temelso.etal.dset.2h2o-orca.engrad-mp2.augccpvtz-50.to.99
|327> ! MP2 aug-cc-pVTZ EnGrad TightSCF FrozenCore
|328>
|329> %pal
|330>     nprocs 12
|331> end
|332>
|333> %maxcore 8000
|334>
|335> %scf
|336>     ConvForced true
|337> end
|338>
|339> *xyz 0 1
|340> O  -1.048397040   2.049752291   0.269403208
|341> H  -1.055497040   2.517252291   1.113203208
|342> H  -1.924297040   1.597852291   0.227603208
|343> O   1.062002960  -2.092147709  -0.352196792
|344> H   1.673702960  -2.335747709   0.352803208
|345> H   1.090102960  -1.106347709  -0.379296792
|346> *
|347>
|348>
|349> $new_job
|350>
|351> # 6h2o.temelso.etal.dset.2h2o-orca.engrad-mp2.augccpvtz-50.to.99
|352> ! MP2 aug-cc-pVTZ EnGrad TightSCF FrozenCore
|353>
|354> %pal
|355>     nprocs 12
|356> end
|357>
|358> %maxcore 8000
|359>
|360> %scf
|361>     ConvForced true
|362> end
|363>
|364> *xyz 0 1
|365> O   1.258810456   0.629814122   0.022889778
|366> H   1.251710456   1.097314122   0.866689778
|367> H   0.382910456   0.177914122  -0.018910222
|368> O  -1.173689544  -0.589085878  -0.029810222
|369> H  -1.783889544  -0.346985878  -0.736610222
|370> H  -1.201989544  -1.574785878  -0.001310222
|371> *
|372>
|373>
|374> $new_job
|375>
|376> # 6h2o.temelso.etal.dset.2h2o-orca.engrad-mp2.augccpvtz-50.to.99
|377> ! MP2 aug-cc-pVTZ EnGrad TightSCF FrozenCore
|378>
|379> %pal
|380>     nprocs 12
|381> end
|382>
|383> %maxcore 8000
|384>
|385> %scf
|386>     ConvForced true
|387> end
|388>
|389> *xyz 0 1
|390> O  -2.376791959  -1.255658392   0.343105595
|391> H  -1.570591959  -1.760058392   0.081205595
|392> H  -2.681091959  -1.683658392   1.152305595
|393> O   2.376708041   1.255641608  -0.343094405
|394> H   2.680908041   1.681841608  -1.153294405
|395> H   1.572108041   1.762141608  -0.080394405
|396> *
|397>
|398>
|399> $new_job
|400>
|849> $new_job
|850>
|851> # 6h2o.temelso.etal.dset.2h2o-orca.engrad-mp2.augccpvtz-50.to.99
|852> ! MP2 aug-cc-pVTZ EnGrad TightSCF FrozenCore
|853>
|854> %pal
|855>     nprocs 12
|856> end
|857>
|858> %maxcore 8000
|859>
|860> %scf
|861>     ConvForced true
|862> end
|863>
|864> *xyz 0 1
|865> O  -0.134568946   1.372401392   0.162170946
|866> H   0.646131054   1.607601392   0.679470946
|867> H  -0.013968946   0.407201392  -0.032329054
|868> O   0.129131054  -1.285098608  -0.164929054
|869> H   0.034031054  -1.729798608  -1.015629054
|870> H  -0.579868946  -1.670898608   0.412270946
|871> *
|872>
|873>
|874> $new_job
|875>
|876> # 6h2o.temelso.etal.dset.2h2o-orca.engrad-mp2.augccpvtz-50.to.99
|877> ! MP2 aug-cc-pVTZ EnGrad TightSCF FrozenCore
|878>
|879> %pal
|880>     nprocs 12
|881> end
|882>
|883> %maxcore 8000
|884>
|885> %scf
|886>     ConvForced true
|887> end
|888>
|889> *xyz 0 1
|890> O   0.797076541   0.736292281  -1.685217175
|891> H   1.577776541   0.971492281  -1.167917175
|892> H   0.917676541  -0.228907719  -1.879717175
|893> O  -0.799823459  -0.738507719   1.652382825
|894> H  -1.298223459  -0.687307719   2.476782825
|895> H  -1.153623459  -0.020107719   1.092082825
|896> *
|897>
|898>
|899> $new_job
|900>
|901> # 6h2o.temelso.etal.dset.2h2o-orca.engrad-mp2.augccpvtz-50.to.99
|902> ! MP2 aug-cc-pVTZ EnGrad TightSCF FrozenCore
|903>
|904> %pal
|905>     nprocs 12
|906> end
|907>
|908> %maxcore 8000
|909>
|910> %scf
|911>     ConvForced true
|912> end
|913>
|914> *xyz 0 1
|915> O   1.880433367   0.959420538  -0.078598468
|916> H   2.661133367   1.194620538   0.438701532
|917> H   2.001033367  -0.005779462  -0.273098468
|918> O  -1.897166633  -0.967079462   0.031201532
|919> H  -1.552166633  -0.117879462   0.373701532
|920> H  -2.844366633  -0.949379462   0.213101532
|921> *
|922>
|923>
|924> $new_job
|925>
|926> # 6h2o.temelso.etal.dset.2h2o-orca.engrad-mp2.augccpvtz-50.to.99
|927> ! MP2 aug-cc-pVTZ EnGrad TightSCF FrozenCore
|928>
|929> %pal
|930>     nprocs 12
|931> end
|932>
|933> %maxcore 8000
|934>
|935> %scf
|936>     ConvForced true
|937> end
|938>
|939> *xyz 0 1
|940> O   0.976631176  -0.589646463  -1.832087057
|941> H   0.881531176  -1.034346463  -2.682787057
|942> H   0.267631176  -0.975446463  -1.254887057
|943> O  -0.883968824   0.593053537   1.832612943
|944> H  -1.382368824   0.644253537   2.657012943
|945> H  -1.237768824   1.311453537   1.272312943
|946> *
|947>
|948>
|949> $new_job
|950>
|951> # 6h2o.temelso.etal.dset.2h2o-orca.engrad-mp2.augccpvtz-50.to.99
|952> ! MP2 aug-cc-pVTZ EnGrad TightSCF FrozenCore
|953>
|954> %pal
|955>     nprocs 12
|956> end
|957>
|958> %maxcore 8000
|959>
|960> %scf
|961>     ConvForced true
|962> end
|963>
|964> *xyz 0 1
|965> O   2.059988002  -0.366518206  -0.225468349
|966> H   1.964888002  -0.811218206  -1.076168349
|967> H   1.350988002  -0.752318206   0.351731651
|968> O  -1.981311998   0.364481794   0.211431651
|969> H  -1.636311998   1.213681794   0.553931651
|970> H  -2.928511998   0.382181794   0.393331651
|971> *
|972>
|973>
|974> $new_job
|975>
|976> # 6h2o.temelso.etal.dset.2h2o-orca.engrad-mp2.augccpvtz-50.to.99
|977> ! MP2 aug-cc-pVTZ EnGrad TightSCF FrozenCore
|978>
|979> %pal
|980>     nprocs 12
|981> end
|982>
|983> %maxcore 8000
|984>
|985> %scf
|986>     ConvForced true
|987> end
|988>
|989> *xyz 0 1
|990> O   1.131033489   0.180072684   1.591843529
|991> H   0.632633489   0.231272684   2.416243529
|992> H   0.777233489   0.898472684   1.031543529
|993> O  -1.049666511  -0.271627316  -1.635956471
|994> H  -0.704666511   0.577572684  -1.293456471
|995> H  -1.996866511  -0.253927316  -1.454056471
|996> *
|997>
|998>
|999> $new_job
|1000>
|1001> # 6h2o.temelso.etal.dset.2h2o-orca.engrad-mp2.augccpvtz-50.to.99
|1002> ! MP2 aug-cc-pVTZ EnGrad TightSCF FrozenCore
|1003>
|1004> %pal
|1005>     nprocs 12
|1006> end
|1007>
|1008> %maxcore 8000
|1009>
|1010> %scf
|1011>     ConvForced true
|1012> end
|1013>
|1014> *xyz 0 1
|1015> O  -1.206278956  -0.698858490   0.187329319
|1016> H  -0.961678956  -1.631558490   0.199829319
|1017> H  -0.357478956  -0.212058490   0.061229319
|1018> O   1.123821044   0.661341510  -0.191670681
|1019> H   1.042821044   1.448241510  -0.781070681
|1020> H   1.585321044   0.990941510   0.588929319
|1021> *
|1022>
|1023>
|1024> $new_job
|1025>
|1026> # 6h2o.temelso.etal.dset.2h2o-orca.engrad-mp2.augccpvtz-50.to.99
|1027> ! MP2 aug-cc-pVTZ EnGrad TightSCF FrozenCore
|1028>
|1029> %pal
|1030>     nprocs 12
|1031> end
|1032>
|1033> %maxcore 8000
|1034>
|1035> %scf
|1036>     ConvForced true
|1037> end
|1038>
|1039> *xyz 0 1
|1040> O  -1.064837988  -1.765158354   1.031552726
|1041> H  -0.820237988  -2.697858354   1.044052726
|1042> H  -0.216037988  -1.278358354   0.905452726
|1043> O   1.045962012   1.768341646  -0.978947274
|1044> H   0.236662012   2.317441646  -0.856047274
|1045> H   1.099262012   1.608241646  -1.928547274
|1046> *
|1047>
|1048>
|1049> $new_job
|1050>
|1051> # 6h2o.temelso.etal.dset.2h2o-orca.engrad-mp2.augccpvtz-50.to.99
|1052> ! MP2 aug-cc-pVTZ EnGrad TightSCF FrozenCore
|1053>
|1054> %pal
|1055>     nprocs 12
|1056> end
|1057>
|1058> %maxcore 8000
|1059>
|1060> %scf
|1061>     ConvForced true
|1062> end
|1063>
|1064> *xyz 0 1
|1065> O   1.065721488  -0.450368068   0.627862633
|1066> H   1.310321488  -1.383068068   0.640362633
|1067> H   1.914521488   0.036431932   0.501762633
|1068> O  -1.169578512   0.518531932  -0.594737367
|1069> H  -1.217578512   0.133431932  -1.477737367
|1070> H  -0.358578512   0.131131932  -0.190237367
|1071> *
|1072>
|1073>
|1074> $new_job
|1075>
|1076> # 6h2o.temelso.etal.dset.2h2o-orca.engrad-mp2.augccpvtz-50.to.99
|1077> ! MP2 aug-cc-pVTZ EnGrad TightSCF FrozenCore
|1078>
|1079> %pal
|1080>     nprocs 12
|1081> end
|1082>
|1083> %maxcore 8000
|1084>
|1085> %scf
|1086>     ConvForced true
|1087> end
|1088>
|1089> *xyz 0 1
|1090> O   0.058162242  -2.508433121   0.769858688
|1091> H   0.302762242  -3.441133121   0.782358688
|1092> H   0.906962242  -2.021633121   0.643758688
|1093> O  -0.057837758   2.516466879  -0.745041312
|1094> H  -0.312037758   3.295766879  -1.253041312
|1095> H  -0.902837758   2.039466879  -0.567041312
|1096> *
|1097>
|1098>
|1099> $new_job
|1100>
|1101> # 6h2o.temelso.etal.dset.2h2o-orca.engrad-mp2.augccpvtz-50.to.99
|1102> ! MP2 aug-cc-pVTZ EnGrad TightSCF FrozenCore
|1103>
|1104> %pal
|1105>     nprocs 12
|1106> end
|1107>
|1108> %maxcore 8000
|1109>
|1110> %scf
|1111>     ConvForced true
|1112> end
|1113>
|1114> *xyz 0 1
|1115> O   1.198948470  -1.805440408   0.501404454
|1116> H   1.443548470  -2.738140408   0.513904454
|1117> H   2.047748470  -1.318640408   0.375304454
|1118> O  -1.239251530   1.876759592  -0.538395546
|1119> H  -1.167651530   0.895359592  -0.606195546
|1120> H  -1.683851530   2.029259592   0.304204454
|1121> *
|1122>
|1123>
|1124> $new_job
|1125>
|1126> # 6h2o.temelso.etal.dset.2h2o-orca.engrad-mp2.augccpvtz-50.to.99
|1127> ! MP2 aug-cc-pVTZ EnGrad TightSCF FrozenCore
|1128>
|1129> %pal
|1130>     nprocs 12
|1131> end
|1132>
|1133> %maxcore 8000
|1134>
|1135> %scf
|1136>     ConvForced true
|1137> end
|1138>
|1139> *xyz 0 1
|1140> O   0.120153747  -1.128762893   0.833526648
|1141> H   0.039153747  -0.341862893   0.244126648
|1142> H   0.581653747  -0.799162893   1.614126648
|1143> O  -0.099146253   1.044537107  -0.797973352
|1144> H  -0.908446253   1.593637107  -0.675073352
|1145> H  -0.045846253   0.884437107  -1.747573352
|1146> *
|1147>
|1148>
|1149> $new_job
|1150>
|1151> # 6h2o.temelso.etal.dset.2h2o-orca.engrad-mp2.augccpvtz-50.to.99
|1152> ! MP2 aug-cc-pVTZ EnGrad TightSCF FrozenCore
|1153>
|1154> %pal
|1155>     nprocs 12
|1156> end
|1157>
|1158> %maxcore 8000
|1159>
|1160> %scf
|1161>     ConvForced true
|1162> end
|1163>
|1164> *xyz 0 1
|1165> O   2.250713223   0.186027393   0.429836555
|1166> H   2.169713223   0.972927393  -0.159563445
|1167> H   2.712213223   0.515627393   1.210436555
|1168> O  -2.314686777  -0.205272607  -0.413763445
|1169> H  -2.362686777  -0.590372607  -1.296763445
|1170> H  -1.503686777  -0.592672607  -0.009263445
|1171> *
|1172>
|1173>
|1174> $new_job
|1175>
|1176> # 6h2o.temelso.etal.dset.2h2o-orca.engrad-mp2.augccpvtz-50.to.99
|1177> ! MP2 aug-cc-pVTZ EnGrad TightSCF FrozenCore
|1178>
|1179> %pal
|1180>     nprocs 12
|1181> end
|1182>
|1183> %maxcore 8000
|1184>
|1185> %scf
|1186>     ConvForced true
|1187> end
|1188>
|1189> *xyz 0 1
|1190> O   1.243153976  -1.872037661   0.571832610
|1191> H   1.162153976  -1.085137661  -0.017567390
|1192> H   1.704653976  -1.542437661   1.352432610
|1193> O  -1.202946024   1.792662339  -0.564067390
|1194> H  -1.457146024   2.571962339  -1.072067390
|1195> H  -2.047946024   1.315662339  -0.386067390
|1196> *
|1197>
|1198>
|1199> $new_job
|1200>
|1201> # 6h2o.temelso.etal.dset.2h2o-orca.engrad-mp2.augccpvtz-50.to.99
|1202> ! MP2 aug-cc-pVTZ EnGrad TightSCF FrozenCore
|1203>
|1204> %pal
|1205>     nprocs 12
|1206> end
|1207>
|1208> %maxcore 8000
|1209>
|1210> %scf
|1211>     ConvForced true
|1212> end
|1213>
|1214> *xyz 0 1
|1215> O   2.383940205  -1.169044947   0.303378376
|1216> H   2.302940205  -0.382144947  -0.286021624
|1217> H   2.845440205  -0.839444947   1.083978376
|1218> O  -2.384359795   1.152955053  -0.357421624
|1219> H  -2.312759795   0.171555053  -0.425221624
|1220> H  -2.828959795   1.305455053   0.485178376
|1221> *
|1222>
|1223>
|1224> $new_job
|1225>
|1226> # 6h2o.temelso.etal.dset.2h2o-orca.engrad-mp2.augccpvtz-50.to.99
|1227> ! MP2 aug-cc-pVTZ EnGrad TightSCF FrozenCore
|1228>
|1229> %pal
|1230>     nprocs 12
|1231> end
|1232>
|1233> %maxcore 8000
|1234>
|1235> %scf
|1236>     ConvForced true
|1237> end
|1238>
|1239> *xyz 0 1
|1240> O   2.172854191   1.293027529  -0.357440038
|1241> H   1.363554191   1.842127529  -0.234540038
|1242> H   2.226154191   1.132927529  -1.307040038
|1243> O  -2.173245809  -1.271572471   0.430459962
|1244> H  -2.221245809  -1.656672471  -0.452540038
|1245> H  -1.362245809  -1.658972471   0.834959962
|1246> *
|1247>
|1248>                          ****END OF INPUT****
 Total Charge           Charge          ....    0
 Multiplicity           Mult            ....    1
 Number of Electrons    NEL             ....   20
MP2 TOTAL ENERGY:     -152.663092845 Eh
FINAL SINGLE POINT ENERGY      -152.663092845430
MP2 TOTAL ENERGY:     -152.658452006 Eh
FINAL SINGLE POINT ENERGY      -152.658452005612
MP2 TOTAL ENERGY:     -152.657428793 Eh
FINAL SINGLE POINT ENERGY      -152.657428792558
MP2 TOTAL ENERGY:     -152.658977651 Eh
FINAL SINGLE POINT ENERGY      -152.658977651322
MP2 TOTAL ENERGY:     -152.662844635 Eh
FINAL SINGLE POINT ENERGY      -152.662844635304
MP2 TOTAL ENERGY:     -152.657726653 Eh
FINAL SINGLE POINT ENERGY      -152.657726653019
FINAL SINGLE POINT ENERGY      -152.664380609561
FINAL SINGLE POINT ENERGY      -152.665244416542
FINAL SINGLE POINT ENERGY      -152.657411777008
FINAL SINGLE POINT ENERGY      -152.663587747476
FINAL SINGLE POINT ENERGY      -152.664267091279
FINAL SINGLE POINT ENERGY      -152.658299815293
FINAL SINGLE POINT ENERGY      -152.663591630849
FINAL SINGLE POINT ENERGY      -152.657460955389
MP2 TOTAL ENERGY:     -152.658438890 Eh
FINAL SINGLE POINT ENERGY      -152.658438889911
MP2 TOTAL ENERGY:     -152.664235921 Eh
FINAL SINGLE POINT ENERGY      -152.664235920618
MP2 TOTAL ENERGY:     -152.658310336 Eh
FINAL SINGLE POINT ENERGY      -152.658310336145
MP2 TOTAL ENERGY:     -152.658433279 Eh
FINAL SINGLE POINT ENERGY      -152.658433278719
MP2 TOTAL ENERGY:     -152.657493585 Eh
FINAL SINGLE POINT ENERGY      -152.657493585248

CARTESIAN COORDINATES (ANGSTROEM)
---------------------------------
  O      2.172854    1.293028   -0.357440
  H      1.363554    1.842128   -0.234540
  H      2.226154    1.132928   -1.307040
  O     -2.173246   -1.271572    0.430460
  H     -2.221246   -1.656672   -0.452540
  H     -1.362246   -1.658972    0.834960

 Multiplicity           Mult            ....    1
 Number of Electrons    NEL             ....   20
 Basis Dimension        Dim             ....  184

ORBITAL ENERGIES
----------------

  NO   OCC          E(Eh)            E(eV)
   0   2.0000     -20.570497      -559.7517
   1   2.0000     -20.570423      -559.7497
   2   2.0000      -1.344780       -36.5933
   3   2.0000      -1.344726       -36.5919
   4   2.0000      -0.709792       -19.3144
   5   2.0000      -0.709599       -19.3092
   6   2.0000      -0.580995       -15.8097
   7   2.0000      -0.580969       -15.8090
   8   2.0000      -0.509759       -13.8713
   9   2.0000      -0.508865       -13.8469
  10   0.0000       0.023862         0.6493
  11   0.0000       0.041374         1.1258
  12   0.0000       0.047493         1.2924
  13   0.0000       0.052046         1.4163
  14   0.0000       0.129189         3.5154

MULLIKEN ATOMIC CHARGES
-----------------------
   0 O :   -0.452401
   1 H :    0.235892
   2 H :    0.216514
   3 O :   -0.452334
   4 H :    0.216516
   5 H :    0.235813
Sum of atomic charges:    0.0000000

LOEWDIN ATOMIC CHARGES
----------------------
   0 O :    0.997167
   1 H :   -0.476361
   2 H :   -0.520801
   3 O :    0.997249
   4 H :   -0.520727
   5 H :   -0.476527

  Mayer bond orders larger than 0.100000
B(  0-O ,  1-H ) :   0.9368 B(  0-O ,  2-H ) :   0.9534 B(  3-O ,  4-H ) :   0.9533
B(  3-O ,  5-H ) :   0.9369

MP2 TOTAL ENERGY:     -152.657455552 Eh
FINAL SINGLE POINT ENERGY      -152.657455552107

DIPOLE MOMENT
-------------
                                X             Y             Z
Electronic contribution:     -0.00142       0.08402       0.28542
Nuclear contribution   :      0.00583      -0.31921      -1.08640
                        -----------------------------------------
Total Dipole Moment    :      0.00440      -0.23519      -0.80098
                        -----------------------------------------
Magnitude (a.u.)       :      0.83480
Magnitude (Debye)      :      2.12190

Rotational constants in cm-1:     5.087876     0.072215     0.072038
Rotational constants in MHz : 152530.686286  2164.947104  2159.638003

                             ****ORCA TERMINATED NORMALLY****
TOTAL RUN TIME: 0 days 0 hours 17 minutes 10 seconds 241 msec
