                         Program Version 4.2.0 -  RELEASE  -
|  1> # 5h2o.temelso.etal.dset.3h2o.dset-orca.engrad-mp2.def2tzvp
|  2> ! MP2 def2-TZVP EnGrad TightSCF FrozenCore
|  3>
|  4> %pal
|  5>     nprocs 12
|  6> end
|  7>
|  8> %maxcore 8000
|  9>
| 10> %scf
| 11>     ConvForced true
| 12> end
| 13>
| 14> *xyz 0 1
| 15> O  -0.071613226  -2.226864692  -0.591605332
| 16> H  -0.612313226  -2.477064692  -1.350605332
| 17> H  -0.451413226  -1.370064692  -0.283805332
| 18> O  -1.027813226   0.196935308   0.216694668
| 19> H  -0.307513226   0.867235308   0.279694668
| 20> H  -1.509013226   0.268435308   1.049494668
| 21> O   1.077786774   1.955835308   0.319994668
| 22> H   1.322886774   2.395135308   1.143294668
| 23> H   1.900886774   1.492535308   0.033694668
| 24> *
| 25>
| 26>
| 27> $new_job
| 28>
| 29> # 5h2o.temelso.etal.dset.3h2o.dset-orca.engrad-mp2.def2tzvp
| 30> ! MP2 def2-TZVP EnGrad TightSCF FrozenCore
| 31>
| 32> %pal
| 33>     nprocs 12
| 34> end
| 35>
| 36> %maxcore 8000
| 37>
| 38> %scf
| 39>     ConvForced true
| 40> end
| 41>
| 42> *xyz 0 1
| 43> O  -0.802337100  -1.761382827  -0.307991142
| 44> H  -1.343037100  -2.011582827  -1.066991142
| 45> H  -1.182137100  -0.904582827  -0.000191142
| 46> O  -1.758537100   0.662417173   0.500308858
| 47> H  -1.038237100   1.332717173   0.563308858
| 48> H  -2.239737100   0.733917173   1.333108858
| 49> O   2.585562900   1.060117173  -0.162991142
| 50> H   2.377262900   0.110317173  -0.330091142
| 51> H   3.033962900   1.355917173  -0.964691142
| 52> *
| 53>
| 54>
| 55> $new_job
| 56>
| 57> # 5h2o.temelso.etal.dset.3h2o.dset-orca.engrad-mp2.def2tzvp
| 58> ! MP2 def2-TZVP EnGrad TightSCF FrozenCore
| 59>
| 60> %pal
| 61>     nprocs 12
| 62> end
| 63>
| 64> %maxcore 8000
| 65>
| 66> %scf
| 67>     ConvForced true
| 68> end
| 69>
| 70> *xyz 0 1
| 71> O  -0.556386620  -0.893477383  -0.179644993
| 72> H  -1.097086620  -1.143677383  -0.938644993
| 73> H  -0.936186620  -0.036677383   0.128155007
| 74> O  -1.512586620   1.530322617   0.628655007
| 75> H  -0.792286620   2.200622617   0.691655007
| 76> H  -1.993786620   1.601822617   1.461455007
| 77> O   2.139313380  -0.665377383  -0.508244993
| 78> H   1.165813380  -0.789977383  -0.406944993
| 79> H   2.536913380  -1.379177383   0.004655007
| 80> *
| 81>
| 82>
| 83> $new_job
| 84>
| 85> # 5h2o.temelso.etal.dset.3h2o.dset-orca.engrad-mp2.def2tzvp
| 86> ! MP2 def2-TZVP EnGrad TightSCF FrozenCore
| 87>
| 88> %pal
| 89>     nprocs 12
| 90> end
| 91>
| 92> %maxcore 8000
| 93>
| 94> %scf
| 95>     ConvForced true
| 96> end
| 97>
| 98> *xyz 0 1
| 99> O  -1.519665208  -2.333401833  -0.335733406
|100> H  -2.060365208  -2.583601833  -1.094733406
|101> H  -1.899465208  -1.476601833  -0.027933406
|102> O  -0.370265208   1.849298167   0.575866594
|103> H  -0.125165208   2.288598167   1.399166594
|104> H   0.452834792   1.385998167   0.289566594
|105> O   1.868234792   0.488098167  -0.190733406
|106> H   1.659934792  -0.461701833  -0.357833406
|107> H   2.316634792   0.783898167  -0.992433406
|108> *
|109>
|110>
|111> $new_job
|112>
|113> # 5h2o.temelso.etal.dset.3h2o.dset-orca.engrad-mp2.def2tzvp
|114> ! MP2 def2-TZVP EnGrad TightSCF FrozenCore
|115>
|116> %pal
|117>     nprocs 12
|118> end
|119>
|120> %maxcore 8000
|121>
|122> %scf
|123>     ConvForced true
|124> end
|125>
|126> *xyz 0 1
|127> O  -1.273714728  -1.465496390  -0.207387258
|128> H  -1.814414728  -1.715696390  -0.966387258
|129> H  -1.653514728  -0.608696390   0.100412742
|130> O  -0.124314728   2.717203610   0.704212742
|131> H   0.120785272   3.156503610   1.527512742
|132> H   0.698785272   2.253903610   0.417912742
|133> O   1.421985272  -1.237396390  -0.535987258
|134> H   0.448485272  -1.361996390  -0.434687258
|135> H   1.819585272  -1.951196390  -0.023087258
|136> *
|137>
|138>
|139> $new_job
|140>
|141> # 5h2o.temelso.etal.dset.3h2o.dset-orca.engrad-mp2.def2tzvp
|142> ! MP2 def2-TZVP EnGrad TightSCF FrozenCore
|143>
|144> %pal
|145>     nprocs 12
|146> end
|147>
|148> %maxcore 8000
|149>
|150> %scf
|151>     ConvForced true
|152> end
|153>
|154> *xyz 0 1
|155> O  -2.004438602  -1.000014524   0.076226932
|156> H  -2.545138602  -1.250214524  -0.682773068
|157> H  -2.384238602  -0.143214524   0.384026932
|158> O   1.383461398   1.821485476   0.221226932
|159> H   1.175161398   0.871685476   0.054126932
|160> H   1.831861398   2.117285476  -0.580473068
|161> O   0.691261398  -0.771914524  -0.252373068
|162> H  -0.282238602  -0.896514524  -0.151073068
|163> H   1.088861398  -1.485714524   0.260526932
|164> *
|165>
|166>
|167> $new_job
|168>
|169> # 5h2o.temelso.etal.dset.3h2o.dset-orca.engrad-mp2.def2tzvp
|170> ! MP2 def2-TZVP EnGrad TightSCF FrozenCore
|171>
|172> %pal
|173>     nprocs 12
|174> end
|175>
|176> %maxcore 8000
|177>
|178> %scf
|179>     ConvForced true
|180> end
|181>
|182> *xyz 0 1
|183> O  -2.178756633  -0.720056439   0.178013779
|184> H  -1.458456633  -0.049756439   0.241013779
|185> H  -2.659956633  -0.648556439   1.010813779
|186> O  -0.073156633   1.038843561   0.281313779
|187> H   0.171943367   1.478143561   1.104613779
|188> H   0.749943367   0.575543561  -0.004986221
|189> O   2.165343367  -0.322356439  -0.485286221
|190> H   1.957043367  -1.272156439  -0.652386221
|191> H   2.613743367  -0.026556439  -1.286986221
|192> *
|193>
|194>
|195> $new_job
|196>
|197> # 5h2o.temelso.etal.dset.3h2o.dset-orca.engrad-mp2.def2tzvp
|198> ! MP2 def2-TZVP EnGrad TightSCF FrozenCore
|199>
|200> %pal
|201>     nprocs 12
|202> end
|203>
|204> %maxcore 8000
|205>
|206> %scf
|207>     ConvForced true
|208> end
|209>
|210> *xyz 0 1
|211> O  -1.932806153   0.147849005   0.306359928
|212> H  -1.212506153   0.818149005   0.369359928
|213> H  -2.414006153   0.219349005   1.139159928
|214> O   0.172793847   1.906749005   0.409659928
|215> H   0.417893847   2.346049005   1.232959928
|216> H   0.995893847   1.443449005   0.123359928
|217> O   1.719093847  -2.047850995  -0.830540072
|218> H   0.745593847  -2.172450995  -0.729240072
|219> H   2.116693847  -2.761650995  -0.317640072
|220> *
|221>
|222>
|223> $new_job
|224>
|225> # 5h2o.temelso.etal.dset.3h2o.dset-orca.engrad-mp2.def2tzvp
|226> ! MP2 def2-TZVP EnGrad TightSCF FrozenCore
|227>
|228> %pal
|229>     nprocs 12
|230> end
|231>
|232> %maxcore 8000
|233>
|234> %scf
|235>     ConvForced true
|236> end
|237>
|238> *xyz 0 1
|239> O  -2.663530027   0.613330870   0.589974118
|240> H  -1.943230027   1.283630870   0.652974118
|241> H  -3.144730027   0.684830870   1.422774118
|242> O   1.680569973   1.011030870  -0.073325882
|243> H   1.472269973   0.061230870  -0.240425882
|244> H   2.128969973   1.306830870  -0.875025882
|245> O   0.988369973  -1.582369130  -0.546925882
|246> H   0.014869973  -1.706969130  -0.445625882
|247> H   1.385969973  -2.296169130  -0.034025882
|248> *
|249>
|250>
|251> $new_job
|252>
|253> # 5h2o.temelso.etal.dset.3h2o.dset-orca.engrad-mp2.def2tzvp
|254> ! MP2 def2-TZVP EnGrad TightSCF FrozenCore
|255>
|256> %pal
|257>     nprocs 12
|258> end
|259>
|260> %maxcore 8000
|261>
|262> %scf
|263>     ConvForced true
|264> end
|265>
|266> *xyz 0 1
|267> O  -1.275258135   1.800211864   0.665531854
|268> H  -1.030158135   2.239511864   1.488831854
|269> H  -0.452158135   1.336911864   0.379231854
|270> O   0.963241865   0.439011864  -0.101068146
|271> H   0.754941865  -0.510788136  -0.268168146
|272> H   1.411641865   0.734811864  -0.902768146
|273> O   0.271041865  -2.154388136  -0.574668146
|274> H  -0.702458135  -2.278988136  -0.473368146
|275> H   0.668641865  -2.868188136  -0.061768146
|276> *
|277>
|278>
|279> $new_job
|280>
|281> # 5h2o.temelso.etal.dset.3h2o.dset-orca.engrad-mp2.def2tzvp
|282> ! MP2 def2-TZVP EnGrad TightSCF FrozenCore
|283>
|284> %pal
|285>     nprocs 12
|286> end
|287>
|288> %maxcore 8000
|289>
|290> %scf
|291>     ConvForced true
|292> end
|293>
|294> *xyz 0 1
|295> O  -0.861777421   1.620419479   1.061956173
|296> H  -0.994577421   0.822119479   0.492556173
|297> H  -1.588477421   1.605819479   1.696056173
|298> O  -0.937977421  -0.602180521  -0.494443827
|299> H   0.012422579  -0.865380521  -0.524343827
|300> H  -1.187977421  -0.499480521  -1.421243827
|301> O   1.766422579  -0.972380521  -0.568043827
|302> H   2.269422579  -1.660480521  -0.116143827
|303> H   2.018322579  -0.130580521  -0.118443827
|304> *
|305>
|306>
|307> $new_job
|308>
|309> # 5h2o.temelso.etal.dset.3h2o.dset-orca.engrad-mp2.def2tzvp
|310> ! MP2 def2-TZVP EnGrad TightSCF FrozenCore
|311>
|312> %pal
|313>     nprocs 12
|314> end
|315>
|316> %maxcore 8000
|317>
|318> %scf
|319>     ConvForced true
|320> end
|321>
|322> *xyz 0 1
|323> O  -0.930854507   0.822409881   0.629146561
|324> H  -1.063654507   0.024109881   0.059746561
|325> H  -1.657554507   0.807809881   1.263246561
|326> O  -1.007054507  -1.400190119  -0.927253439
|327> H  -0.056654507  -1.663390119  -0.957153439
|328> H  -1.257054507  -1.297490119  -1.854053439
|329> O   2.001345493   0.589209881   0.349246561
|330> H   1.853045493   1.393309881  -0.183253439
|331> H   1.174845493   0.554209881   0.859646561
|332> *
|333>
|334>
|335> $new_job
|336>
|337> # 5h2o.temelso.etal.dset.3h2o.dset-orca.engrad-mp2.def2tzvp
|338> ! MP2 def2-TZVP EnGrad TightSCF FrozenCore
|339>
|340> %pal
|341>     nprocs 12
|342> end
|343>
|344> %maxcore 8000
|345>
|346> %scf
|347>     ConvForced true
|348> end
|349>
|350> *xyz 0 1
|351> O  -0.453976077   0.088214257   0.971606296
|352> H  -0.586776077  -0.710085743   0.402206296
|353> H  -1.180676077   0.073614257   1.605706296
|354> O  -0.530176077  -2.134385743  -0.584793704
|355> H   0.420223923  -2.397585743  -0.614693704
|356> H  -0.780176077  -2.031685743  -1.511593704
|357> O   1.031923923   2.080214257  -0.386493704
|358> H   1.037123923   2.946914257   0.038006296
|359> H   0.331923923   1.578414257   0.075306296
|360> *
|361>
|362>
|363> $new_job
|364>
|365> # 5h2o.temelso.etal.dset.3h2o.dset-orca.engrad-mp2.def2tzvp
|366> ! MP2 def2-TZVP EnGrad TightSCF FrozenCore
|367>
|368> %pal
|369>     nprocs 12
|370> end
|371>
|372> %maxcore 8000
|373>
|374> %scf
|375>     ConvForced true
|376> end
|377>
|378> *xyz 0 1
|379> O  -1.833337515   0.939950534   0.619027319
|380> H  -1.966137515   0.141650534   0.049627319
|381> H  -2.560037515   0.925350534   1.253127319
|382> O   0.794862485  -1.652849466  -1.010972681
|383> H   1.297862485  -2.340949466  -0.559072681
|384> H   1.046762485  -0.811049466  -0.561372681
|385> O   1.098862485   0.706750534   0.339127319
|386> H   0.950562485   1.510850534  -0.193372681
|387> H   0.272362485   0.671750534   0.849527319
|388> *
|389>
|390>
|391> $new_job
|392>
|393> # 5h2o.temelso.etal.dset.3h2o.dset-orca.engrad-mp2.def2tzvp
|394> ! MP2 def2-TZVP EnGrad TightSCF FrozenCore
|395>
|396> %pal
|397>     nprocs 12
|398> end
|399>
|400> %maxcore 8000
|1559> H   0.343447485   0.881648776   0.522830044
|1560> H   0.600347485  -0.620451224   0.723930044
|1561> O  -0.857152515   1.910748776  -0.780769956
|1562> H  -0.971652515   2.857948776  -0.632369956
|1563> H  -1.624652515   1.502148776  -0.341969956
|1564> *
|1565>
|1566>
|1567> $new_job
|1568>
|1569> # 5h2o.temelso.etal.dset.3h2o.dset-orca.engrad-mp2.def2tzvp
|1570> ! MP2 def2-TZVP EnGrad TightSCF FrozenCore
|1571>
|1572> %pal
|1573>     nprocs 12
|1574> end
|1575>
|1576> %maxcore 8000
|1577>
|1578> %scf
|1579>     ConvForced true
|1580> end
|1581>
|1582> *xyz 0 1
|1583> O  -0.818263949  -1.696180069  -0.887049829
|1584> H  -1.037063949  -0.837480069  -0.469449829
|1585> H  -1.129063949  -2.359180069  -0.257749829
|1586> O  -0.931063949   0.834519931   0.353050171
|1587> H  -1.410963949   1.063519931   1.158550171
|1588> H   0.031336051   0.799219931   0.606750171
|1589> O   1.739336051   0.847119931   0.482250171
|1590> H   1.723736051   1.533419931  -0.208849829
|1591> H   1.980636051   0.031319931  -0.007749829
|1592> *
|1593>
|1594>
|1595> $new_job
|1596>
|1597> # 5h2o.temelso.etal.dset.3h2o.dset-orca.engrad-mp2.def2tzvp
|1598> ! MP2 def2-TZVP EnGrad TightSCF FrozenCore
|1599>
|1600> %pal
|1601>     nprocs 12
|1602> end
|1603>
|1604> %maxcore 8000
|1605>
|1606> %scf
|1607>     ConvForced true
|1608> end
|1609>
|1610> *xyz 0 1
|1611> O  -0.392207046  -2.280439108  -0.255125907
|1612> H  -0.611007046  -1.421739108   0.162474093
|1613> H  -0.703007046  -2.943439108   0.374174093
|1614> O  -0.505007046   0.250260892   0.984974093
|1615> H  -0.984907046   0.479260892   1.790474093
|1616> H   0.457392954   0.214960892   1.238674093
|1617> O   0.949192954   1.978260892  -0.880525907
|1618> H   0.834692954   2.925460892  -0.732125907
|1619> H   0.181692954   1.569660892  -0.441725907
|1620> *
|1621>
|1622>
|1623> $new_job
|1624>
|1625> # 5h2o.temelso.etal.dset.3h2o.dset-orca.engrad-mp2.def2tzvp
|1626> ! MP2 def2-TZVP EnGrad TightSCF FrozenCore
|1627>
|1628> %pal
|1629>     nprocs 12
|1630> end
|1631>
|1632> %maxcore 8000
|1633>
|1634> %scf
|1635>     ConvForced true
|1636> end
|1637>
|1638> *xyz 0 1
|1639> O  -1.277551453  -2.278611924  -0.256414421
|1640> H  -1.496351453  -1.419911924   0.161185579
|1641> H  -1.588351453  -2.941611924   0.372885579
|1642> O   1.280048547   0.264688076   1.112885579
|1643> H   1.264448547   0.950988076   0.421785579
|1644> H   1.521348547  -0.551111924   0.622885579
|1645> O   0.063848547   1.980088076  -0.881814421
|1646> H  -0.050651453   2.927288076  -0.733414421
|1647> H  -0.703651453   1.571488076  -0.443014421
|1648> *
|1649>
|1650>
|1651> $new_job
|1652>
|1653> # 5h2o.temelso.etal.dset.3h2o.dset-orca.engrad-mp2.def2tzvp
|1654> ! MP2 def2-TZVP EnGrad TightSCF FrozenCore
|1655>
|1656> %pal
|1657>     nprocs 12
|1658> end
|1659>
|1660> %maxcore 8000
|1661>
|1662> %scf
|1663>     ConvForced true
|1664> end
|1665>
|1666> *xyz 0 1
|1667> O  -1.371625564  -0.591441294   0.570089536
|1668> H  -1.851525564  -0.362441294   1.375589536
|1669> H  -0.409225564  -0.626741294   0.823789536
|1670> O   1.298774436  -0.578841294   0.699289536
|1671> H   1.283174436   0.107458706   0.008189536
|1672> H   1.540074436  -1.394641294   0.209289536
|1673> O   0.082574436   1.136558706  -1.295410464
|1674> H  -0.031925564   2.083758706  -1.147010464
|1675> H  -0.684925564   0.727958706  -0.856610464
|1676> *
|1677>
|1678>
|1679> $new_job
|1680>
|1681> # 5h2o.temelso.etal.dset.3h2o.dset-orca.engrad-mp2.def2tzvp
|1682> ! MP2 def2-TZVP EnGrad TightSCF FrozenCore
|1683>
|1684> %pal
|1685>     nprocs 12
|1686> end
|1687>
|1688> %maxcore 8000
|1689>
|1690> %scf
|1691>     ConvForced true
|1692> end
|1693>
|1694> *xyz 0 1
|1695> O   1.886886981  -0.929803192  -0.079245996
|1696> H   0.936686981  -1.026403192  -0.301445996
|1697> H   2.090386981  -1.699103192   0.466454004
|1698> O  -0.912913019  -0.871203192  -0.472445996
|1699> H  -1.065713019   0.069796808  -0.247045996
|1700> H  -1.481213019  -1.356903192   0.137854004
|1701> O  -0.911013019   1.809996808   0.425054004
|1702> H  -1.471713019   2.171496808   1.122554004
|1703> H  -0.007913019   1.698396808   0.831954004
|1704> *
|1705>
|1706>
|1707> $new_job
|1708>
|1709> # 5h2o.temelso.etal.dset.3h2o.dset-orca.engrad-mp2.def2tzvp
|1710> ! MP2 def2-TZVP EnGrad TightSCF FrozenCore
|1711>
|1712> %pal
|1713>     nprocs 12
|1714> end
|1715>
|1716> %maxcore 8000
|1717>
|1718> %scf
|1719>     ConvForced true
|1720> end
|1721>
|1722> *xyz 0 1
|1723> O   1.022965494  -0.856723950  -0.247772995
|1724> H   0.072765494  -0.953323950  -0.469972995
|1725> H   1.226465494  -1.626023950   0.297927005
|1726> O  -1.776834506  -0.798123950  -0.640972995
|1727> H  -1.929634506   0.142876050  -0.415572995
|1728> H  -2.345134506  -1.283823950  -0.030672995
|1729> O   0.811565494   1.691576050   0.884427005
|1730> H   1.004565494   2.323276050   0.167827005
|1731> H   1.055065494   0.813976050   0.519027005
|1732> *
|1733>
|1734>
|1735> $new_job
|1736>
|1737> # 5h2o.temelso.etal.dset.3h2o.dset-orca.engrad-mp2.def2tzvp
|1738> ! MP2 def2-TZVP EnGrad TightSCF FrozenCore
|1739>
|1740> %pal
|1741>     nprocs 12
|1742> end
|1743>
|1744> %maxcore 8000
|1745>
|1746> %scf
|1747>     ConvForced true
|1748> end
|1749>
|1750> *xyz 0 1
|1751> O   1.257501537  -1.477231772   0.441739372
|1752> H   0.307301537  -1.573831772   0.219539372
|1753> H   1.461001537  -2.246531772   0.987439372
|1754> O  -1.542298463  -1.418631772   0.048539372
|1755> H  -1.695098463  -0.477631772   0.273939372
|1756> H  -2.110598463  -1.904331772   0.658839372
|1757> O   0.419401537   2.886968228  -0.580960628
|1758> H   0.351401537   3.823468228  -0.355260628
|1759> H  -0.450798463   2.520068228  -0.344960628
|1760> *
|1761>
|1762>
|1763> $new_job
|1764>
|1765> # 5h2o.temelso.etal.dset.3h2o.dset-orca.engrad-mp2.def2tzvp
|1766> ! MP2 def2-TZVP EnGrad TightSCF FrozenCore
|1767>
|1768> %pal
|1769>     nprocs 12
|1770> end
|1771>
|1772> %maxcore 8000
|1773>
|1774> %scf
|1775>     ConvForced true
|1776> end
|1777>
|1778> *xyz 0 1
|1779> O   1.002499519  -1.746626889  -0.551950504
|1780> H   0.052299519  -1.843226889  -0.774150504
|1781> H   1.205999519  -2.515926889  -0.006250504
|1782> O  -1.795400481   0.993173111  -0.047650504
|1783> H  -2.356100481   1.354673111   0.649849496
|1784> H  -0.892300481   0.881573111   0.359249496
|1785> O   0.791099519   0.801673111   0.580249496
|1786> H   0.984099519   1.433373111  -0.136350504
|1787> H   1.034599519  -0.075926889   0.214849496
|1788> *
|1789>
|1790>
|1791> $new_job
|1792>
|1793> # 5h2o.temelso.etal.dset.3h2o.dset-orca.engrad-mp2.def2tzvp
|1794> ! MP2 def2-TZVP EnGrad TightSCF FrozenCore
|1795>
|1796> %pal
|1797>     nprocs 12
|1798> end
|1799>
|1800> %maxcore 8000
|1801>
|1802> %scf
|1803>     ConvForced true
|1804> end
|1805>
|1806> *xyz 0 1
|1807> O   1.237035563  -2.367134711   0.137561863
|1808> H   0.286835563  -2.463734711  -0.084638137
|1809> H   1.440535563  -3.136434711   0.683261863
|1810> O  -1.560864437   0.372665289   0.641861863
|1811> H  -2.121564437   0.734165289   1.339361863
|1812> H  -0.657764437   0.261065289   1.048761863
|1813> O   0.398935563   1.997065289  -0.885138137
|1814> H   0.330935563   2.933565289  -0.659438137
|1815> H  -0.471264437   1.630165289  -0.649138137
|1816> *
|1817>
|1818>
|1819> $new_job
|1820>
|1821> # 5h2o.temelso.etal.dset.3h2o.dset-orca.engrad-mp2.def2tzvp
|1822> ! MP2 def2-TZVP EnGrad TightSCF FrozenCore
|1823>
|1824> %pal
|1825>     nprocs 12
|1826> end
|1827>
|1828> %maxcore 8000
|1829>
|1830> %scf
|1831>     ConvForced true
|1832> end
|1833>
|1834> *xyz 0 1
|1835> O   0.373114075  -2.294055470  -0.030965136
|1836> H  -0.577085925  -2.390655470  -0.253165136
|1837> H   0.576614075  -3.063355470   0.514734864
|1838> O   0.161714075   0.254244530   1.101234864
|1839> H   0.354714075   0.885944530   0.384634864
|1840> H   0.405214075  -0.623355470   0.735834864
|1841> O  -0.464985925   2.070144530  -1.053665136
|1842> H  -0.532985925   3.006644530  -0.827965136
|1843> H  -1.335185925   1.703244530  -0.817665136
|1844> *
|1845>
|1846>
|1847> $new_job
|1848>
|1849> # 5h2o.temelso.etal.dset.3h2o.dset-orca.engrad-mp2.def2tzvp
|1850> ! MP2 def2-TZVP EnGrad TightSCF FrozenCore
|1851>
|1852> %pal
|1853>     nprocs 12
|1854> end
|1855>
|1856> %maxcore 8000
|1857>
|1858> %scf
|1859>     ConvForced true
|1860> end
|1861>
|1862> *xyz 0 1
|1863> O  -0.864511215  -1.732198573  -0.823635580
|1864> H  -1.017311215  -0.791198573  -0.598235580
|1865> H  -1.432811215  -2.217898573  -0.213335580
|1866> O  -0.862611215   0.949001427   0.073864420
|1867> H  -1.423311215   1.310501427   0.771364420
|1868> H   0.040488785   0.837401427   0.480764420
|1869> O   1.723888785   0.757501427   0.701764420
|1870> H   1.916888785   1.389201427  -0.014835580
|1871> H   1.967388785  -0.120098573   0.336364420
|1872> *
|1873>
|1874>
|1875> $new_job
|1876>
|1877> # 5h2o.temelso.etal.dset.3h2o.dset-orca.engrad-mp2.def2tzvp
|1878> ! MP2 def2-TZVP EnGrad TightSCF FrozenCore
|1879>
|1880> %pal
|1881>     nprocs 12
|1882> end
|1883>
|1884> %maxcore 8000
|1885>
|1886> %scf
|1887>     ConvForced true
|1888> end
|1889>
|1890> *xyz 0 1
|1891> O  -0.629975171  -2.352706395  -0.134123214
|1892> H  -0.782775171  -1.411706395   0.091276786
|1893> H  -1.198275171  -2.838406395   0.476176786
|1894> O  -0.628075171   0.328493605   0.763376786
|1895> H  -1.188775171   0.689993605   1.460876786
|1896> H   0.275024829   0.216893605   1.170276786
|1897> O   1.331724829   1.952893605  -0.763623214
|1898> H   1.263724829   2.889393605  -0.537923214
|1899> H   0.461524829   1.585993605  -0.527623214
|1900> *
|1901>
|1902>
|1903> $new_job
|1904>
|1905> # 5h2o.temelso.etal.dset.3h2o.dset-orca.engrad-mp2.def2tzvp
|1906> ! MP2 def2-TZVP EnGrad TightSCF FrozenCore
|1907>
|1908> %pal
|1909>     nprocs 12
|1910> end
|1911>
|1912> %maxcore 8000
|1913>
|1914> %scf
|1915>     ConvForced true
|1916> end
|1917>
|1918> *xyz 0 1
|1919> O  -1.493896659  -2.279627153  -0.302650212
|1920> H  -1.646696659  -1.338627153  -0.077250212
|1921> H  -2.062196659  -2.765327153   0.307649788
|1922> O   1.094503341   0.210072847   1.222749788
|1923> H   1.287503341   0.841772847   0.506149788
|1924> H   1.338003341  -0.667527153   0.857349788
|1925> O   0.467803341   2.025972847  -0.932150212
|1926> H   0.399803341   2.962472847  -0.706450212
|1927> H  -0.402396659   1.659072847  -0.696150212
|1928> *
|1929>
|1930>
|1931> $new_job
|1932>
|1933> # 5h2o.temelso.etal.dset.3h2o.dset-orca.engrad-mp2.def2tzvp
|1934> ! MP2 def2-TZVP EnGrad TightSCF FrozenCore
|1935>
|1936> %pal
|1937>     nprocs 12
|1938> end
|1939>
|1940> %maxcore 8000
|1941>
|1942> %scf
|1943>     ConvForced true
|1944> end
|1945>
|1946> *xyz 0 1
|1947> O  -1.512462633  -0.488330092   0.290672279
|1948> H  -2.073162633  -0.126830092   0.988172279
|1949> H  -0.609362633  -0.599930092   0.697572279
|1950> O   1.074037367  -0.679830092   0.918572279
|1951> H   1.267037367  -0.048130092   0.201972279
|1952> H   1.317537367  -1.557430092   0.553172279
|1953> O   0.447337367   1.136069908  -1.236327721
|1954> H   0.379337367   2.072569908  -1.010627721
|1955> H  -0.422862633   0.769169908  -1.000327721
|1956> *
|1957>
|1958>                          ****END OF INPUT****
 Total Charge           Charge          ....    0
 Multiplicity           Mult            ....    1
 Number of Electrons    NEL             ....   30
MP2 TOTAL ENERGY:     -228.957715484 Eh
FINAL SINGLE POINT ENERGY      -228.957715483747
MP2 TOTAL ENERGY:     -228.950644552 Eh
FINAL SINGLE POINT ENERGY      -228.950644551861
MP2 TOTAL ENERGY:     -228.958717791 Eh
FINAL SINGLE POINT ENERGY      -228.958717791393
MP2 TOTAL ENERGY:     -228.950607500 Eh
FINAL SINGLE POINT ENERGY      -228.950607499656
MP2 TOTAL ENERGY:     -228.950626717 Eh
FINAL SINGLE POINT ENERGY      -228.950626716919
MP2 TOTAL ENERGY:     -228.958705871 Eh
FINAL SINGLE POINT ENERGY      -228.958705871288
FINAL SINGLE POINT ENERGY      -228.957787525198
FINAL SINGLE POINT ENERGY      -228.949298101765
FINAL SINGLE POINT ENERGY      -228.950584801985
FINAL SINGLE POINT ENERGY      -228.958720845313
FINAL SINGLE POINT ENERGY      -228.957668052537
FINAL SINGLE POINT ENERGY      -228.959591546374
FINAL SINGLE POINT ENERGY      -228.943405806904
FINAL SINGLE POINT ENERGY      -228.958313928286
MP2 TOTAL ENERGY:     -228.946325923 Eh
FINAL SINGLE POINT ENERGY      -228.946325923410
MP2 TOTAL ENERGY:     -228.952986211 Eh
FINAL SINGLE POINT ENERGY      -228.952986210716
MP2 TOTAL ENERGY:     -228.957765366 Eh
FINAL SINGLE POINT ENERGY      -228.957765365759
MP2 TOTAL ENERGY:     -228.950594256 Eh
FINAL SINGLE POINT ENERGY      -228.950594255624
MP2 TOTAL ENERGY:     -228.948151038 Eh
FINAL SINGLE POINT ENERGY      -228.948151037637

CARTESIAN COORDINATES (ANGSTROEM)
---------------------------------
  O     -1.512463   -0.488330    0.290672
  H     -2.073163   -0.126830    0.988172
  H     -0.609363   -0.599930    0.697572
  O      1.074037   -0.679830    0.918572
  H      1.267037   -0.048130    0.201972
  H      1.317537   -1.557430    0.553172
  O      0.447337    1.136070   -1.236328
  H      0.379337    2.072570   -1.010628
  H     -0.422863    0.769170   -1.000328

 Multiplicity           Mult            ....    1
 Number of Electrons    NEL             ....   30
 Basis Dimension        Dim             ....  129

ORBITAL ENERGIES
----------------

  NO   OCC          E(Eh)            E(eV)
   0   2.0000     -20.576741      -559.9216
   1   2.0000     -20.566073      -559.6313
   2   2.0000     -20.543750      -559.0239
   3   2.0000      -1.365958       -37.1696
   4   2.0000      -1.349115       -36.7113
   5   2.0000      -1.323343       -36.0100
   6   2.0000      -0.730970       -19.8907
   7   2.0000      -0.714540       -19.4436
   8   2.0000      -0.700852       -19.0711
   9   2.0000      -0.606775       -16.5112
  10   2.0000      -0.591644       -16.0994
  11   2.0000      -0.567338       -15.4380
  12   2.0000      -0.517530       -14.0827
  13   2.0000      -0.508917       -13.8483
  14   2.0000      -0.491640       -13.3782
  15   0.0000       0.118937         3.2364
  16   0.0000       0.156392         4.2557
  17   0.0000       0.167146         4.5483
  18   0.0000       0.260769         7.0959
  19   0.0000       0.266640         7.2556

MULLIKEN ATOMIC CHARGES
-----------------------
   0 O :   -0.735689
   1 H :    0.334266
   2 H :    0.372330
   3 O :   -0.703263
   4 H :    0.376235
   5 H :    0.357041
   6 O :   -0.714199
   7 H :    0.343028
   8 H :    0.370249
Sum of atomic charges:    0.0000000

LOEWDIN ATOMIC CHARGES
----------------------
   0 O :   -0.353087
   1 H :    0.154657
   2 H :    0.145172
   3 O :   -0.289065
   4 H :    0.158716
   5 H :    0.178010
   6 O :   -0.315980
   7 H :    0.162685
   8 H :    0.158892

  Mayer bond orders larger than 0.100000
B(  0-O ,  1-H ) :   0.8517 B(  0-O ,  2-H ) :   0.7628 B(  3-O ,  4-H ) :   0.7991
B(  3-O ,  5-H ) :   0.8360 B(  6-O ,  7-H ) :   0.8475 B(  6-O ,  8-H ) :   0.8029

MP2 TOTAL ENERGY:     -228.964160515 Eh
FINAL SINGLE POINT ENERGY      -228.964160515445

DIPOLE MOMENT
-------------
                                X             Y             Z
Electronic contribution:      0.18593      -0.08656      -0.04906
Nuclear contribution   :     -0.13260       0.47744       0.40295
                        -----------------------------------------
Total Dipole Moment    :      0.05334       0.39089       0.35388
                        -----------------------------------------
Magnitude (a.u.)       :      0.52997
Magnitude (Debye)      :      1.34708

Rotational constants in cm-1:     0.253087     0.198650     0.114365
Rotational constants in MHz :  7587.371376  5955.368142  3428.586665

                             ****ORCA TERMINATED NORMALLY****
TOTAL RUN TIME: 0 days 0 hours 10 minutes 4 seconds 5 msec
