                         Program Version 4.2.0 -  RELEASE  -
|  1> ! RI-MP2 def2-TZVP def2/J def2-TZVP/C EnGrad TightSCF FrozenCore
|  2>
|  3> %pal
|  4>     nprocs 12
|  5> end
|  6>
|  7> %maxcore 50000
|  8>
|  9> %scf
| 10>     ConvForced true
| 11> end
| 12>
| 13> *xyz 0 1
| 14> O    -3.0187920901     0.7173145038     1.6771253393
| 15> H    -2.6818740701     0.523685618      0.7655303699
| 16> C    -3.3278139153    -0.5542090792     2.2174299125
| 17> H    -3.7750506912    -0.3497753788     3.1935880695
| 18> H    -2.4174176962    -1.1540403805     2.3480570893
| 19> H    -4.0410819154    -1.1004331028     1.5879263477
| 20> O    -5.3098773629     2.1730129545     1.1885828792
| 21> H    -4.5343218414     1.5874879303     1.379525357
| 22> C    -5.5242152635     2.0307382494    -0.2023286455
| 23> H    -6.3994088514     2.6468360532    -0.4227188317
| 24> H    -5.7293190789     0.9873193294    -0.4739293682
| 25> H    -4.6583442244     2.3940448554    -0.7813557913
| 26> O    -4.0641030381     4.6217354424     1.626909031
| 27> H    -4.5902296469     3.796181513      1.484292958
| 28> C    -3.2929976485     4.3380983344     2.7803352523
| 29> H    -2.6750942006     5.2262996108     2.9378342013
| 30> H    -2.6497816411     3.4618684411     2.6269107309
| 31> H    -3.9315247294     4.1758794746     3.6559375322
| 32> O     1.9291959359     3.6180485447    -0.9310103983
| 33> H     1.3676763728     4.2581772118    -0.420185781
| 34> C     1.304856342      3.5285158469    -2.1972926743
| 35> H     1.8974703642     2.7898853091    -2.7552523477
| 36> H     1.3263810561     4.4918482688    -2.7192780876
| 37> H     0.2613669908     3.1807323674    -2.1116176212
| 38> O    -2.2161153762     4.7490958374    -0.4265868654
| 39> H    -2.8929725618     4.756806409      0.2975544888
| 40> C    -2.1451964763     3.3855808245    -0.7989274729
| 41> H    -1.3748395193     3.3304218796    -1.5810282823
| 42> H    -3.1074744719     3.0268810039    -1.1978450031
| 43> H    -1.8472439388     2.7500892609     0.0468846606
| 44> O     0.3160610996     5.3458719732     0.4730924518
| 45> H    -0.6166892584     5.1654680853     0.1874041064
| 46> C     0.5784864181     6.6621093844     0.026039367
| 47> H     1.5853231019     6.8906492504     0.385706472
| 48> H    -0.1344648653     7.3795348855     0.4473712845
| 49> H     0.5563142811     6.7226015767    -1.0691937194
| 50> O    -2.3416408199     0.1823064781    -0.9452710972
| 51> H    -2.7755835411    -0.7034904434    -1.0311454568
| 52> C    -0.9544932721    -0.0641041087    -1.0846156267
| 53> H    -0.4975817453     0.930773221     -1.1381616852
| 54> H    -0.7283211057    -0.6255618103    -1.9980893869
| 55> H    -0.5596509566    -0.6063246713    -0.2091793542
| 56> O     1.9096635832     1.0363209298     0.0187891962
| 57> H     1.9133352929     1.9923761069    -0.2427262203
| 58> C     2.7104120356     0.9566188145     1.1829935037
| 59> H     2.515379678     -0.0472880301     1.5871580977
| 60> H     2.4306908881     1.7126843089     1.9244274923
| 61> H     3.7740244745     1.0578536272     0.9362094115
| 62> O     0.5055458657    -3.1692591993     1.4560441682
| 63> H     1.3687912201    -3.5198972497     1.7854128166
| 64> C     0.4390280179    -1.8518654485     1.9702163596
| 65> H    -0.2886010564    -1.3233024958     1.3361810302
| 66> H     1.4082330204    -1.329128129      1.9201267316
| 67> H     0.0806548534    -1.86759871       3.0052900524
| 68> O     0.1265094396    -3.076363248     -1.2561966676
| 69> H     0.3400087948    -3.0935242228    -0.2884518046
| 70> C     1.3188200806    -3.418433896     -1.9292718243
| 71> H     1.0422114723    -3.4795716855    -2.9848242339
| 72> H     1.7176883187    -4.3846869277    -1.5928970878
| 73> H     2.0868868172    -2.6459782816    -1.7913058378
| 74> O    -2.2405490006    -4.3403676353    -1.7570858381
| 75> H    -1.3302443341    -3.9744021993    -1.6259089695
| 76> C    -2.3686139387    -5.3445773423    -0.7685631912
| 77> H    -3.3858797329    -5.728552846     -0.882562074
| 78> H    -2.2376065184    -4.9396646319     0.2422051445
| 79> H    -1.6506923715    -6.1563098173    -0.9327359048
| 80> O    -3.7455302558    -2.1811700774    -0.9407178111
| 81> H    -3.2563752438    -2.9832287744    -1.2565626851
| 82> C    -4.8300236147    -2.030924414     -1.835448747
| 83> H    -5.3670491449    -1.1449244068    -1.481069017
| 84> H    -5.4951880504    -2.9011947886    -1.8058749797
| 85> H    -4.4863297417    -1.8672617321    -2.8635172191
| 86> O     3.1900122954    -0.2943107065    -2.0209410159
| 87> H     2.7145091168     0.1638871675    -1.2795605075
| 88> C     3.7736218558     0.7544871096    -2.7711059828
| 89> H     4.1690484133     0.2796037312    -3.6724113528
| 90> H     4.5895707778     1.2318072097    -2.2151899958
| 91> H     3.0276321328     1.5168768141    -3.0480433727
| 92> O     5.2091590613    -1.7602860194    -0.8871113802
| 93> H     4.4881903036    -1.244416518     -1.3346632385
| 94> C     5.0986128902    -3.0685626063    -1.4109926491
| 95> H     5.9986754994    -3.5900324981    -1.0743952535
| 96> H     5.0587262593    -3.0691973663    -2.5056874805
| 97> H     4.2072352596    -3.5835397863    -1.0102626251
| 98> O     4.5032956384    -1.8075264656     1.7682135139
| 99> H     4.8097346281    -1.7800911707     0.8256230274
|100> C     5.6838205846    -1.7834102347     2.5464171701
|101> H     5.3404454922    -1.8141344666     3.5839040821
|102> H     6.2550917499    -0.8645009595     2.3734778661
|103> H     6.3181243121    -2.6539172648     2.3412409211
|104> O     3.008513329     -4.0772968044     2.2050528486
|105> H     3.6009522475    -3.2933436404     2.0810789218
|106> C     3.4136986867    -4.9991528037     1.2135295829
|107> H     2.6771415653    -5.8058204759     1.250508246
|108> H     4.4102334553    -5.3996324695     1.4323937302
|109> H     3.4196854048    -4.5462570331     0.2062764962
|110> *
|111>
|112>
|113>                          ****END OF INPUT****

CARTESIAN COORDINATES (ANGSTROEM)
---------------------------------
  O     -3.018792    0.717315    1.677125
  H     -2.681874    0.523686    0.765530
  C     -3.327814   -0.554209    2.217430
  H     -3.775051   -0.349775    3.193588
  H     -2.417418   -1.154040    2.348057
  H     -4.041082   -1.100433    1.587926
  O     -5.309877    2.173013    1.188583
  H     -4.534322    1.587488    1.379525
  C     -5.524215    2.030738   -0.202329
  H     -6.399409    2.646836   -0.422719
  H     -5.729319    0.987319   -0.473929
  H     -4.658344    2.394045   -0.781356
  O     -4.064103    4.621735    1.626909
  H     -4.590230    3.796182    1.484293
  C     -3.292998    4.338098    2.780335
  H     -2.675094    5.226300    2.937834
  H     -2.649782    3.461868    2.626911
  H     -3.931525    4.175879    3.655938
  O      1.929196    3.618049   -0.931010
  H      1.367676    4.258177   -0.420186
  C      1.304856    3.528516   -2.197293
  H      1.897470    2.789885   -2.755252
  H      1.326381    4.491848   -2.719278
  H      0.261367    3.180732   -2.111618
  O     -2.216115    4.749096   -0.426587
  H     -2.892973    4.756806    0.297554
  C     -2.145196    3.385581   -0.798927
  H     -1.374840    3.330422   -1.581028
  H     -3.107474    3.026881   -1.197845
  H     -1.847244    2.750089    0.046885
  O      0.316061    5.345872    0.473092
  H     -0.616689    5.165468    0.187404
  C      0.578486    6.662109    0.026039
  H      1.585323    6.890649    0.385706
  H     -0.134465    7.379535    0.447371
  H      0.556314    6.722602   -1.069194
  O     -2.341641    0.182306   -0.945271
  H     -2.775584   -0.703490   -1.031145
  C     -0.954493   -0.064104   -1.084616
  H     -0.497582    0.930773   -1.138162
  H     -0.728321   -0.625562   -1.998089
  H     -0.559651   -0.606325   -0.209179
  O      1.909664    1.036321    0.018789
  H      1.913335    1.992376   -0.242726
  C      2.710412    0.956619    1.182994
  H      2.515380   -0.047288    1.587158
  H      2.430691    1.712684    1.924427
  H      3.774024    1.057854    0.936209
  O      0.505546   -3.169259    1.456044
  H      1.368791   -3.519897    1.785413
  C      0.439028   -1.851865    1.970216
  H     -0.288601   -1.323302    1.336181
  H      1.408233   -1.329128    1.920127
  H      0.080655   -1.867599    3.005290
  O      0.126509   -3.076363   -1.256197
  H      0.340009   -3.093524   -0.288452
  C      1.318820   -3.418434   -1.929272
  H      1.042211   -3.479572   -2.984824
  H      1.717688   -4.384687   -1.592897
  H      2.086887   -2.645978   -1.791306
  O     -2.240549   -4.340368   -1.757086
  H     -1.330244   -3.974402   -1.625909
  C     -2.368614   -5.344577   -0.768563
  H     -3.385880   -5.728553   -0.882562
  H     -2.237607   -4.939665    0.242205
  H     -1.650692   -6.156310   -0.932736
  O     -3.745530   -2.181170   -0.940718
  H     -3.256375   -2.983229   -1.256563
  C     -4.830024   -2.030924   -1.835449
  H     -5.367049   -1.144924   -1.481069
  H     -5.495188   -2.901195   -1.805875
  H     -4.486330   -1.867262   -2.863517
  O      3.190012   -0.294311   -2.020941
  H      2.714509    0.163887   -1.279561
  C      3.773622    0.754487   -2.771106
  H      4.169048    0.279604   -3.672411
  H      4.589571    1.231807   -2.215190
  H      3.027632    1.516877   -3.048043
  O      5.209159   -1.760286   -0.887111
  H      4.488190   -1.244417   -1.334663
  C      5.098613   -3.068563   -1.410993
  H      5.998675   -3.590032   -1.074395
  H      5.058726   -3.069197   -2.505687
  H      4.207235   -3.583540   -1.010263
  O      4.503296   -1.807526    1.768214
  H      4.809735   -1.780091    0.825623
  C      5.683821   -1.783410    2.546417
  H      5.340445   -1.814134    3.583904
  H      6.255092   -0.864501    2.373478
  H      6.318124   -2.653917    2.341241
  O      3.008513   -4.077297    2.205053
  H      3.600952   -3.293344    2.081079
  C      3.413699   -4.999153    1.213530
  H      2.677142   -5.805820    1.250508
  H      4.410233   -5.399632    1.432394
  H      3.419685   -4.546257    0.206276

 Total Charge           Charge          ....    0
 Multiplicity           Mult            ....    1
 Number of Electrons    NEL             ....  288
 Basis Dimension        Dim             .... 1376

ORBITAL ENERGIES
----------------

  NO   OCC          E(Eh)            E(eV)
   0   2.0000     -20.564392      -559.5856
   1   2.0000     -20.563200      -559.5531
   2   2.0000     -20.561632      -559.5105
   3   2.0000     -20.560435      -559.4779
   4   2.0000     -20.555832      -559.3526
   5   2.0000     -20.555361      -559.3398
   6   2.0000     -20.553433      -559.2873
   7   2.0000     -20.553110      -559.2786
   8   2.0000     -20.551789      -559.2426
   9   2.0000     -20.550587      -559.2099
  10   2.0000     -20.549356      -559.1764
  11   2.0000     -20.548638      -559.1569
  12   2.0000     -20.545651      -559.0756
  13   2.0000     -20.544679      -559.0491
  14   2.0000     -20.544435      -559.0425
  15   2.0000     -20.541860      -558.9724
  16   2.0000     -11.282086      -307.0012
  17   2.0000     -11.279673      -306.9355
  18   2.0000     -11.278649      -306.9076
  19   2.0000     -11.277128      -306.8663
  20   2.0000     -11.274268      -306.7884
  21   2.0000     -11.270731      -306.6922
  22   2.0000     -11.269072      -306.6470
  23   2.0000     -11.268172      -306.6226
  24   2.0000     -11.267073      -306.5926
  25   2.0000     -11.266481      -306.5765
  26   2.0000     -11.265346      -306.5456
  27   2.0000     -11.261515      -306.4414
  28   2.0000     -11.260803      -306.4220
  29   2.0000     -11.260793      -306.4217
  30   2.0000     -11.255676      -306.2825
  31   2.0000     -11.252988      -306.2094
  32   2.0000      -1.381123       -37.5823
  33   2.0000      -1.374907       -37.4131
  34   2.0000      -1.371145       -37.3108
  35   2.0000      -1.368841       -37.2480
  36   2.0000      -1.366318       -37.1794
  37   2.0000      -1.363377       -37.0994
  38   2.0000      -1.362072       -37.0639
  39   2.0000      -1.358370       -36.9631
  40   2.0000      -1.357570       -36.9414
  41   2.0000      -1.353001       -36.8170
  42   2.0000      -1.351904       -36.7872
  43   2.0000      -1.348814       -36.7031
  44   2.0000      -1.346324       -36.6353
  45   2.0000      -1.343840       -36.5678
  46   2.0000      -1.339838       -36.4588
  47   2.0000      -1.335712       -36.3466
  48   2.0000      -0.938002       -25.5243
  49   2.0000      -0.931370       -25.3439
  50   2.0000      -0.929034       -25.2803
  51   2.0000      -0.926788       -25.2192
  52   2.0000      -0.924581       -25.1591
  53   2.0000      -0.923938       -25.1416
  54   2.0000      -0.922429       -25.1006
  55   2.0000      -0.920158       -25.0388
  56   2.0000      -0.916742       -24.9458
  57   2.0000      -0.916339       -24.9348
  58   2.0000      -0.915118       -24.9016
  59   2.0000      -0.914624       -24.8882
  60   2.0000      -0.912545       -24.8316
  61   2.0000      -0.907098       -24.6834
  62   2.0000      -0.905619       -24.6431
  63   2.0000      -0.902415       -24.5560
  64   2.0000      -0.730350       -19.8738
  65   2.0000      -0.721159       -19.6237
  66   2.0000      -0.718149       -19.5418
  67   2.0000      -0.715233       -19.4625
  68   2.0000      -0.711326       -19.3562
  69   2.0000      -0.709497       -19.3064
  70   2.0000      -0.705544       -19.1988
  71   2.0000      -0.701779       -19.0964
  72   2.0000      -0.699507       -19.0345
  73   2.0000      -0.695964       -18.9381
  74   2.0000      -0.694415       -18.8960
  75   2.0000      -0.687720       -18.7138
  76   2.0000      -0.686324       -18.6758
  77   2.0000      -0.683564       -18.6007
  78   2.0000      -0.680073       -18.5057
  79   2.0000      -0.676029       -18.3957
  80   2.0000      -0.639450       -17.4003
  81   2.0000      -0.634798       -17.2737
  82   2.0000      -0.632832       -17.2202
  83   2.0000      -0.630225       -17.1493
  84   2.0000      -0.627366       -17.0715
  85   2.0000      -0.625182       -17.0121
  86   2.0000      -0.623470       -16.9655
  87   2.0000      -0.621378       -16.9086
  88   2.0000      -0.619982       -16.8706
  89   2.0000      -0.616970       -16.7886
  90   2.0000      -0.616893       -16.7865
  91   2.0000      -0.616131       -16.7658
  92   2.0000      -0.614936       -16.7333
  93   2.0000      -0.607557       -16.5325
  94   2.0000      -0.607053       -16.5188
  95   2.0000      -0.604517       -16.4497
  96   2.0000      -0.602472       -16.3941
  97   2.0000      -0.601806       -16.3760
  98   2.0000      -0.599062       -16.3013
  99   2.0000      -0.597353       -16.2548
 100   2.0000      -0.595680       -16.2093
 101   2.0000      -0.594414       -16.1748
 102   2.0000      -0.590230       -16.0610
 103   2.0000      -0.588846       -16.0233
 104   2.0000      -0.586827       -15.9684
 105   2.0000      -0.586364       -15.9558
 106   2.0000      -0.584405       -15.9025
 107   2.0000      -0.583827       -15.8867
 108   2.0000      -0.582910       -15.8618
 109   2.0000      -0.579946       -15.7811
 110   2.0000      -0.576773       -15.6948
 111   2.0000      -0.571974       -15.5642
 112   2.0000      -0.535598       -14.5744
 113   2.0000      -0.529486       -14.4081
 114   2.0000      -0.523024       -14.2322
 115   2.0000      -0.521814       -14.1993
 116   2.0000      -0.520188       -14.1550
 117   2.0000      -0.517819       -14.0906
 118   2.0000      -0.512995       -13.9593
 119   2.0000      -0.509587       -13.8666
 120   2.0000      -0.507663       -13.8142
 121   2.0000      -0.501752       -13.6534
 122   2.0000      -0.500351       -13.6152
 123   2.0000      -0.495459       -13.4821
 124   2.0000      -0.491795       -13.3824
 125   2.0000      -0.489798       -13.3281
 126   2.0000      -0.485202       -13.2030
 127   2.0000      -0.483785       -13.1645
 128   2.0000      -0.463791       -12.6204
 129   2.0000      -0.458747       -12.4831
 130   2.0000      -0.455891       -12.4054
 131   2.0000      -0.452191       -12.3047
 132   2.0000      -0.450558       -12.2603
 133   2.0000      -0.449931       -12.2433
 134   2.0000      -0.448168       -12.1953
 135   2.0000      -0.447595       -12.1797
 136   2.0000      -0.446180       -12.1412
 137   2.0000      -0.445086       -12.1114
 138   2.0000      -0.444660       -12.0998
 139   2.0000      -0.443023       -12.0553
 140   2.0000      -0.439839       -11.9686
 141   2.0000      -0.435651       -11.8547
 142   2.0000      -0.432611       -11.7720
 143   2.0000      -0.429051       -11.6751
 144   0.0000       0.117987         3.2106
 145   0.0000       0.131001         3.5647
 146   0.0000       0.134416         3.6577
 147   0.0000       0.141624         3.8538
 148   0.0000       0.146335         3.9820

MULLIKEN ATOMIC CHARGES
-----------------------
   0 O :   -0.552217
   1 H :    0.367417
   2 C :   -0.202986
   3 H :    0.131837
   4 H :    0.107488
   5 H :    0.140196
   6 O :   -0.551158
   7 H :    0.374056
   8 C :   -0.147971
   9 H :    0.134245
  10 H :    0.106536
  11 H :    0.075746
  12 O :   -0.544035
  13 H :    0.367036
  14 C :   -0.213762
  15 H :    0.129491
  16 H :    0.136843
  17 H :    0.123932
  18 O :   -0.553176
  19 H :    0.380696
  20 C :   -0.146016
  21 H :    0.091659
  22 H :    0.130735
  23 H :    0.081601
  24 O :   -0.547114
  25 H :    0.375930
  26 C :   -0.174137
  27 H :    0.107423
  28 H :    0.117366
  29 H :    0.135878
  30 O :   -0.554116
  31 H :    0.370239
  32 C :   -0.185395
  33 H :    0.130337
  34 H :    0.127843
  35 H :    0.112040
  36 O :   -0.555447
  37 H :    0.361416
  38 C :   -0.094698
  39 H :    0.100241
  40 H :    0.126010
  41 H :    0.055963
  42 O :   -0.561928
  43 H :    0.375759
  44 C :   -0.192337
  45 H :    0.141622
  46 H :    0.133856
  47 H :    0.114812
  48 O :   -0.551532
  49 H :    0.368485
  50 C :   -0.130484
  51 H :    0.116669
  52 H :    0.079154
  53 H :    0.119972
  54 O :   -0.564416
  55 H :    0.381564
  56 C :   -0.187904
  57 H :    0.131392
  58 H :    0.109013
  59 H :    0.137816
  60 O :   -0.544436
  61 H :    0.371188
  62 C :   -0.202609
  63 H :    0.125267
  64 H :    0.136101
  65 H :    0.116027
  66 O :   -0.557749
  67 H :    0.367990
  68 C :   -0.166358
  69 H :    0.108300
  70 H :    0.120519
  71 H :    0.125796
  72 O :   -0.557728
  73 H :    0.386914
  74 C :   -0.173861
  75 H :    0.126154
  76 H :    0.130803
  77 H :    0.098285
  78 O :   -0.549577
  79 H :    0.367544
  80 C :   -0.163634
  81 H :    0.134528
  82 H :    0.131897
  83 H :    0.070630
  84 O :   -0.565681
  85 H :    0.370858
  86 C :   -0.182664
  87 H :    0.135583
  88 H :    0.128812
  89 H :    0.115664
  90 O :   -0.544835
  91 H :    0.368244
  92 C :   -0.161948
  93 H :    0.139182
  94 H :    0.125604
  95 H :    0.069706
Sum of atomic charges:   -0.0000000

LOEWDIN ATOMIC CHARGES
----------------------
   0 O :   -0.084587
   1 H :    0.166922
   2 C :   -0.396161
   3 H :    0.109507
   4 H :    0.100727
   5 H :    0.102305
   6 O :   -0.082365
   7 H :    0.168781
   8 C :   -0.395943
   9 H :    0.110768
  10 H :    0.097943
  11 H :    0.095162
  12 O :   -0.086104
  13 H :    0.171226
  14 C :   -0.397253
  15 H :    0.108649
  16 H :    0.100020
  17 H :    0.102760
  18 O :   -0.083643
  19 H :    0.171991
  20 C :   -0.397530
  21 H :    0.102161
  22 H :    0.103971
  23 H :    0.094396
  24 O :   -0.081650
  25 H :    0.172366
  26 C :   -0.406257
  27 H :    0.102222
  28 H :    0.101516
  29 H :    0.104308
  30 O :   -0.085502
  31 H :    0.170715
  32 C :   -0.392370
  33 H :    0.109930
  34 H :    0.104400
  35 H :    0.096612
  36 O :   -0.079019
  37 H :    0.168452
  38 C :   -0.402929
  39 H :    0.102361
  40 H :    0.104594
  41 H :    0.093230
  42 O :   -0.073687
  43 H :    0.170468
  44 C :   -0.396519
  45 H :    0.101893
  46 H :    0.105275
  47 H :    0.097273
  48 O :   -0.082029
  49 H :    0.170775
  50 C :   -0.390866
  51 H :    0.103914
  52 H :    0.099891
  53 H :    0.102447
  54 O :   -0.067195
  55 H :    0.169976
  56 C :   -0.401338
  57 H :    0.112229
  58 H :    0.094928
  59 H :    0.103272
  60 O :   -0.087010
  61 H :    0.167344
  62 C :   -0.397404
  63 H :    0.108588
  64 H :    0.101762
  65 H :    0.100616
  66 O :   -0.084181
  67 H :    0.170615
  68 C :   -0.392142
  69 H :    0.104988
  70 H :    0.102473
  71 H :    0.101578
  72 O :   -0.082670
  73 H :    0.171440
  74 C :   -0.391632
  75 H :    0.109818
  76 H :    0.102954
  77 H :    0.099006
  78 O :   -0.082236
  79 H :    0.170036
  80 C :   -0.396769
  81 H :    0.110455
  82 H :    0.105403
  83 H :    0.090394
  84 O :   -0.078477
  85 H :    0.168319
  86 C :   -0.391587
  87 H :    0.112127
  88 H :    0.104607
  89 H :    0.098978
  90 O :   -0.079932
  91 H :    0.168323
  92 C :   -0.398370
  93 H :    0.112189
  94 H :    0.102942
  95 H :    0.090067

  Mayer bond orders larger than 0.100000
B(  0-O ,  1-H ) :   0.7519 B(  0-O ,  2-C ) :   0.8797 B(  1-H , 36-O ) :   0.1032
B(  2-C ,  3-H ) :   0.9415 B(  2-C ,  4-H ) :   0.9384 B(  2-C ,  5-H ) :   0.9353
B(  6-O ,  7-H ) :   0.7606 B(  6-O ,  8-C ) :   0.8828 B(  8-C ,  9-H ) :   0.9423
B(  8-C , 10-H ) :   0.9490 B(  8-C , 11-H ) :   0.9318 B( 12-O , 13-H ) :   0.7682
B( 12-O , 14-C ) :   0.8779 B( 12-O , 25-H ) :   0.1000 B( 14-C , 15-H ) :   0.9420
B( 14-C , 16-H ) :   0.9319 B( 14-C , 17-H ) :   0.9408 B( 18-O , 19-H ) :   0.7492
B( 18-O , 20-C ) :   0.8941 B( 18-O , 43-H ) :   0.1018 B( 19-H , 30-O ) :   0.1015
B( 20-C , 21-H ) :   0.9471 B( 20-C , 22-H ) :   0.9406 B( 20-C , 23-H ) :   0.9369
B( 24-O , 25-H ) :   0.7577 B( 24-O , 26-C ) :   0.8851 B( 24-O , 31-H ) :   0.1138
B( 26-C , 27-H ) :   0.9378 B( 26-C , 28-H ) :   0.9317 B( 26-C , 29-H ) :   0.9451
B( 30-O , 31-H ) :   0.7505 B( 30-O , 32-C ) :   0.8857 B( 32-C , 33-H ) :   0.9427
B( 32-C , 34-H ) :   0.9399 B( 32-C , 35-H ) :   0.9377 B( 36-O , 37-H ) :   0.7639
B( 36-O , 38-C ) :   0.8741 B( 38-C , 39-H ) :   0.9427 B( 38-C , 40-H ) :   0.9361
B( 38-C , 41-H ) :   0.9409 B( 42-O , 43-H ) :   0.7496 B( 42-O , 44-C ) :   0.8798
B( 42-O , 73-H ) :   0.1013 B( 44-C , 45-H ) :   0.9366 B( 44-C , 46-H ) :   0.9345
B( 44-C , 47-H ) :   0.9442 B( 48-O , 49-H ) :   0.7639 B( 48-O , 50-C ) :   0.8907
B( 50-C , 51-H ) :   0.9401 B( 50-C , 52-H ) :   0.9354 B( 50-C , 53-H ) :   0.9342
B( 54-O , 55-H ) :   0.7412 B( 54-O , 56-C ) :   0.8791 B( 56-C , 57-H ) :   0.9419
B( 56-C , 58-H ) :   0.9368 B( 56-C , 59-H ) :   0.9316 B( 60-O , 61-H ) :   0.7627
B( 60-O , 62-C ) :   0.8845 B( 60-O , 67-H ) :   0.1203 B( 62-C , 63-H ) :   0.9427
B( 62-C , 64-H ) :   0.9382 B( 62-C , 65-H ) :   0.9384 B( 66-O , 67-H ) :   0.7446
B( 66-O , 68-C ) :   0.8918 B( 68-C , 69-H ) :   0.9438 B( 68-C , 70-H ) :   0.9353
B( 68-C , 71-H ) :   0.9435 B( 72-O , 73-H ) :   0.7404 B( 72-O , 74-C ) :   0.8871
B( 72-O , 79-H ) :   0.1179 B( 74-C , 75-H ) :   0.9401 B( 74-C , 76-H ) :   0.9436
B( 74-C , 77-H ) :   0.9394 B( 78-O , 79-H ) :   0.7485 B( 78-O , 80-C ) :   0.8823
B( 78-O , 85-H ) :   0.1105 B( 80-C , 81-H ) :   0.9466 B( 80-C , 82-H ) :   0.9350
B( 80-C , 83-H ) :   0.9388 B( 84-O , 85-H ) :   0.7441 B( 84-O , 86-C ) :   0.8750
B( 84-O , 91-H ) :   0.1025 B( 86-C , 87-H ) :   0.9441 B( 86-C , 88-H ) :   0.9383
B( 86-C , 89-H ) :   0.9376 B( 90-O , 91-H ) :   0.7586 B( 90-O , 92-C ) :   0.8851
B( 92-C , 93-H ) :   0.9457 B( 92-C , 94-H ) :   0.9409 B( 92-C , 95-H ) :   0.9341

MP2 TOTAL ENERGY:    -1848.324309956 Eh
FINAL SINGLE POINT ENERGY     -1848.324309955536

DIPOLE MOMENT
-------------
                                X             Y             Z
Electronic contribution:     -5.08382       4.10381       3.05845
Nuclear contribution   :      6.96944      -5.39657      -3.80012
                        -----------------------------------------
Total Dipole Moment    :      1.88562      -1.29276      -0.74168
                        -----------------------------------------
Magnitude (a.u.)       :      2.40351
Magnitude (Debye)      :      6.10923

Rotational constants in cm-1:     0.003197     0.002064     0.001550
Rotational constants in MHz :    95.837576    61.863419    46.455485

                             ****ORCA TERMINATED NORMALLY****
TOTAL RUN TIME: 0 days 1 hours 18 minutes 25 seconds 152 msec
