                         Program Version 4.2.0 -  RELEASE  -
|  1> # 6h2o.temelso.etal.dset.3h2o-orca.engrad-mp2.augccpvtz-150.to.159
|  2> ! MP2 aug-cc-pVTZ EnGrad TightSCF FrozenCore
|  3>
|  4> %pal
|  5>     nprocs 12
|  6> end
|  7>
|  8> %maxcore 8000
|  9>
| 10> %scf
| 11>     ConvForced true
| 12> end
| 13>
| 14> *xyz 0 1
| 15> O  -1.399913894  -0.917144653   0.781210639
| 16> H  -0.684813894  -1.301144653   0.221910639
| 17> H  -2.168613894  -1.479344653   0.631610639
| 18> O   0.631986106  -1.975244653  -0.702889361
| 19> H   1.528786106  -1.672144653  -0.423789361
| 20> H   0.644586106  -1.915044653  -1.665489361
| 21> O   0.779486106   2.934555347   0.028310639
| 22> H   0.527886106   3.172855347  -0.871889361
| 23> H  -0.031313894   2.525455347   0.414910639
| 24> *
| 25>
| 26>
| 27> $new_job
| 28>
| 29> # 6h2o.temelso.etal.dset.3h2o-orca.engrad-mp2.augccpvtz-150.to.159
| 30> ! MP2 aug-cc-pVTZ EnGrad TightSCF FrozenCore
| 31>
| 32> %pal
| 33>     nprocs 12
| 34> end
| 35>
| 36> %maxcore 8000
| 37>
| 38> %scf
| 39>     ConvForced true
| 40> end
| 41>
| 42> *xyz 0 1
| 43> O  -2.202699618   0.417205607   0.746784564
| 44> H  -1.487599618   0.033205607   0.187484564
| 45> H  -2.971399618  -0.144994393   0.597184564
| 46> O  -0.170799618  -0.640894393  -0.737315436
| 47> H   0.726000382  -0.337794393  -0.458215436
| 48> H  -0.158199618  -0.580694393  -1.699915436
| 49> O   2.304300382   0.225305607   0.013384564
| 50> H   2.661600382  -0.187594393   0.808984564
| 51> H   2.328100382   1.192205607   0.201684564
| 52> *
| 53>
| 54>
| 55> $new_job
| 56>
| 57> # 6h2o.temelso.etal.dset.3h2o-orca.engrad-mp2.augccpvtz-150.to.159
| 58> ! MP2 aug-cc-pVTZ EnGrad TightSCF FrozenCore
| 59>
| 60> %pal
| 61>     nprocs 12
| 62> end
| 63>
| 64> %maxcore 8000
| 65>
| 66> %scf
| 67>     ConvForced true
| 68> end
| 69>
| 70> *xyz 0 1
| 71> O  -2.182532975  -0.484115388   0.593303824
| 72> H  -1.467432975  -0.868115388   0.034003824
| 73> H  -2.951232975  -1.046315388   0.443703824
| 74> O  -0.150632975  -1.542215388  -0.890796176
| 75> H   0.746167025  -1.239115388  -0.611696176
| 76> H  -0.138032975  -1.482015388  -1.853396176
| 77> O   2.290267025   1.996584612   0.397203824
| 78> H   1.473567025   2.500684612   0.172203824
| 79> H   3.017967025   2.607084612   0.232303824
| 80> *
| 81>
| 82>
| 83> $new_job
| 84>
| 85> # 6h2o.temelso.etal.dset.3h2o-orca.engrad-mp2.augccpvtz-150.to.159
| 86> ! MP2 aug-cc-pVTZ EnGrad TightSCF FrozenCore
| 87>
| 88> %pal
| 89>     nprocs 12
| 90> end
| 91>
| 92> %maxcore 8000
| 93>
| 94> %scf
| 95>     ConvForced true
| 96> end
| 97>
| 98> *xyz 0 1
| 99> O  -2.215095244  -1.209434248   0.499882857
|100> H  -1.499995244  -1.593434248  -0.059417143
|101> H  -2.983795244  -1.771634248   0.350282857
|102> O  -0.035695244   2.642265752  -0.253017143
|103> H  -0.287295244   2.880565752  -1.153217143
|104> H  -0.846495244   2.233165752   0.133582857
|105> O   2.291904756  -1.401334248  -0.233517143
|106> H   2.649204756  -1.814234248   0.562082857
|107> H   2.315704756  -0.434434248  -0.045217143
|108> *
|109>
|110>
|111> $new_job
|112>
|113> # 6h2o.temelso.etal.dset.3h2o-orca.engrad-mp2.augccpvtz-150.to.159
|114> ! MP2 aug-cc-pVTZ EnGrad TightSCF FrozenCore
|115>
|116> %pal
|117>     nprocs 12
|118> end
|119>
|120> %maxcore 8000
|121>
|122> %scf
|123>     ConvForced true
|124> end
|125>
|126> *xyz 0 1
|127> O  -2.194928601  -2.110755244   0.346402116
|128> H  -1.479828601  -2.494755244  -0.212897884
|129> H  -2.963628601  -2.672955244   0.196802116
|130> O  -0.015528601   1.740944756  -0.406497884
|131> H  -0.267128601   1.979244756  -1.306697884
|132> H  -0.826328601   1.331844756  -0.019897884
|133> O   2.277871399   0.369944756   0.150302116
|134> H   1.461171399   0.874044756  -0.074697884
|135> H   3.005571399   0.980444756  -0.014597884
|136> *
|137>
|138>
|139> $new_job
|140>
|141> # 6h2o.temelso.etal.dset.3h2o-orca.engrad-mp2.augccpvtz-150.to.159
|142> ! MP2 aug-cc-pVTZ EnGrad TightSCF FrozenCore
|143>
|144> %pal
|145>     nprocs 12
|146> end
|147>
|148> %maxcore 8000
|149>
|150> %scf
|151>     ConvForced true
|152> end
|153>
|154> *xyz 0 1
|155> O  -2.997714325  -0.776404984   0.311976042
|156> H  -2.282614325  -1.160404984  -0.247323958
|157> H  -3.766414325  -1.338604984   0.162376042
|158> O   1.509285675  -0.968304984  -0.421423958
|159> H   1.866585675  -1.381204984   0.374176042
|160> H   1.533085675  -0.001404984  -0.233123958
|161> O   1.475085675   1.704295016   0.115876042
|162> H   0.658385675   2.208395016  -0.109123958
|163> H   2.202785675   2.314795016  -0.049023958
|164> *
|165>
|166>
|167> $new_job
|168>
|169> # 6h2o.temelso.etal.dset.3h2o-orca.engrad-mp2.augccpvtz-150.to.159
|170> ! MP2 aug-cc-pVTZ EnGrad TightSCF FrozenCore
|171>
|172> %pal
|173>     nprocs 12
|174> end
|175>
|176> %maxcore 8000
|177>
|178> %scf
|179>     ConvForced true
|180> end
|181>
|182> *xyz 0 1
|183> O  -0.878453715  -1.939254412  -0.489990814
|184> H   0.018346285  -1.636154412  -0.210890814
|185> H  -0.865853715  -1.879054412  -1.452590814
|186> O  -0.730953715   2.970545588   0.241209186
|187> H  -0.982553715   3.208845588  -0.658990814
|188> H  -1.541753715   2.561445588   0.627809186
|189> O   1.596646285  -1.073054412   0.260709186
|190> H   1.953946285  -1.485954412   1.056309186
|191> H   1.620446285  -0.106154412   0.449009186
|192> *
|193>
|194>
|195> $new_job
|196>
|197> # 6h2o.temelso.etal.dset.3h2o-orca.engrad-mp2.augccpvtz-150.to.159
|198> ! MP2 aug-cc-pVTZ EnGrad TightSCF FrozenCore
|199>
|200> %pal
|201>     nprocs 12
|202> end
|203>
|204> %maxcore 8000
|205>
|206> %scf
|207>     ConvForced true
|208> end
|209>
|210> *xyz 0 1
|211> O  -0.858287072  -2.840575407  -0.643471555
|212> H   0.038512928  -2.537475407  -0.364371555
|213> H  -0.845687072  -2.780375407  -1.606071555
|214> O  -0.710787072   2.069224593   0.087728445
|215> H  -0.962387072   2.307524593  -0.812471555
|216> H  -1.521587072   1.660124593   0.474328445
|217> O   1.582612928   0.698224593   0.644528445
|218> H   0.765912928   1.202324593   0.419528445
|219> H   2.310312928   1.308724593   0.479628445
|220> *
|221>
|222>
|223> $new_job
|224>
|225> # 6h2o.temelso.etal.dset.3h2o-orca.engrad-mp2.augccpvtz-150.to.159
|226> ! MP2 aug-cc-pVTZ EnGrad TightSCF FrozenCore
|227>
|228> %pal
|229>     nprocs 12
|230> end
|231>
|232> %maxcore 8000
|233>
|234> %scf
|235>     ConvForced true
|236> end
|237>
|238> *xyz 0 1
|239> O  -1.661072796  -1.506225147  -0.677897629
|240> H  -0.764272796  -1.203125147  -0.398797629
|241> H  -1.648472796  -1.446025147  -1.640497629
|242> O   0.814027204  -0.640025147   0.072802371
|243> H   1.171327204  -1.052925147   0.868402371
|244> H   0.837827204   0.326874853   0.261102371
|245> O   0.779827204   2.032574853   0.610102371
|246> H  -0.036872796   2.536674853   0.385102371
|247> H   1.507527204   2.643074853   0.445202371
|248> *
|249>
|250>
|251> $new_job
|252>
|253> # 6h2o.temelso.etal.dset.3h2o-orca.engrad-mp2.augccpvtz-150.to.159
|254> ! MP2 aug-cc-pVTZ EnGrad TightSCF FrozenCore
|255>
|256> %pal
|257>     nprocs 12
|258> end
|259>
|260> %maxcore 8000
|261>
|262> %scf
|263>     ConvForced true
|264> end
|265>
|266> *xyz 0 1
|267> O  -1.525968422   1.776934998  -0.193599336
|268> H  -1.777568422   2.015234998  -1.093799336
|269> H  -2.336768422   1.367834998   0.193000664
|270> O   0.801631578  -2.266665002  -0.174099336
|271> H   1.158931578  -2.679565002   0.621500664
|272> H   0.825431578  -1.299765002   0.014200664
|273> O   0.767431578   0.405934998   0.363200664
|274> H  -0.049268422   0.910034998   0.138200664
|275> H   1.495131578   1.016434998   0.198300664
|276> *
|277>
|278>                          ****END OF INPUT****
 Total Charge           Charge          ....    0
 Multiplicity           Mult            ....    1
 Number of Electrons    NEL             ....   30
MP2 TOTAL ENERGY:     -228.994985073 Eh
FINAL SINGLE POINT ENERGY      -228.994985073071
MP2 TOTAL ENERGY:     -229.003897702 Eh
FINAL SINGLE POINT ENERGY      -229.003897702117
MP2 TOTAL ENERGY:     -228.994715600 Eh
FINAL SINGLE POINT ENERGY      -228.994715600155
MP2 TOTAL ENERGY:     -228.989795541 Eh
FINAL SINGLE POINT ENERGY      -228.989795540569
MP2 TOTAL ENERGY:     -228.994686819 Eh
FINAL SINGLE POINT ENERGY      -228.994686818530
MP2 TOTAL ENERGY:     -228.995023348 Eh
FINAL SINGLE POINT ENERGY      -228.995023348100
MP2 TOTAL ENERGY:     -228.995121037 Eh
FINAL SINGLE POINT ENERGY      -228.995121037441
MP2 TOTAL ENERGY:     -228.994963792 Eh
FINAL SINGLE POINT ENERGY      -228.994963791655
MP2 TOTAL ENERGY:     -229.003723425 Eh
FINAL SINGLE POINT ENERGY      -229.003723425396

CARTESIAN COORDINATES (ANGSTROEM)
---------------------------------
  O     -1.525968    1.776935   -0.193599
  H     -1.777568    2.015235   -1.093799
  H     -2.336768    1.367835    0.193001
  O      0.801632   -2.266665   -0.174099
  H      1.158932   -2.679565    0.621501
  H      0.825432   -1.299765    0.014201
  O      0.767432    0.405935    0.363201
  H     -0.049268    0.910035    0.138201
  H      1.495132    1.016435    0.198301

 Multiplicity           Mult            ....    1
 Number of Electrons    NEL             ....   30
 Basis Dimension        Dim             ....  276

ORBITAL ENERGIES
----------------

  NO   OCC          E(Eh)            E(eV)
   0   2.0000     -20.609885      -560.8235
   1   2.0000     -20.556610      -559.3738
   2   2.0000     -20.513321      -558.1958
   3   2.0000      -1.389817       -37.8188
   4   2.0000      -1.341880       -36.5144
   5   2.0000      -1.292798       -35.1788
   6   2.0000      -0.750135       -20.4122
   7   2.0000      -0.719853       -19.5882
   8   2.0000      -0.677091       -18.4246
   9   2.0000      -0.628154       -17.0929
  10   2.0000      -0.581495       -15.8233
  11   2.0000      -0.549830       -14.9616
  12   2.0000      -0.521801       -14.1989
  13   2.0000      -0.500161       -13.6101
  14   2.0000      -0.457744       -12.4559
  15   0.0000       0.017259         0.4696
  16   0.0000       0.039625         1.0783
  17   0.0000       0.041715         1.1351
  18   0.0000       0.056383         1.5343
  19   0.0000       0.073240         1.9930

MULLIKEN ATOMIC CHARGES
-----------------------
   0 O :   -0.381586
   1 H :    0.212677
   2 H :    0.230755
   3 O :   -0.515634
   4 H :    0.189241
   5 H :    0.259485
   6 O :   -0.442950
   7 H :    0.261745
   8 H :    0.186267
Sum of atomic charges:    0.0000000

LOEWDIN ATOMIC CHARGES
----------------------
   0 O :    1.095745
   1 H :   -0.449947
   2 H :   -0.401953
   3 O :    1.013347
   4 H :   -0.517889
   5 H :   -0.738724
   6 O :    1.113070
   7 H :   -0.666724
   8 H :   -0.446925

  Mayer bond orders larger than 0.100000
B(  0-O ,  1-H ) :   0.9615 B(  0-O ,  2-H ) :   0.9459 B(  3-O ,  4-H ) :   0.9821
B(  3-O ,  5-H ) :   0.8642 B(  6-O ,  7-H ) :   0.8804 B(  6-O ,  8-H ) :   0.9915

MP2 TOTAL ENERGY:     -229.003595571 Eh
FINAL SINGLE POINT ENERGY      -229.003595570527

DIPOLE MOMENT
-------------
                                X             Y             Z
Electronic contribution:     -0.16110       0.18872      -0.05565
Nuclear contribution   :     -0.64117       1.24671       0.06692
                        -----------------------------------------
Total Dipole Moment    :     -0.80227       1.43543       0.01128
                        -----------------------------------------
Magnitude (a.u.)       :      1.64446
Magnitude (Debye)      :      4.17987

Rotational constants in cm-1:     0.591563     0.084169     0.074863
Rotational constants in MHz : 17734.600886  2523.320799  2244.338895

                             ****ORCA TERMINATED NORMALLY****
TOTAL RUN TIME: 0 days 0 hours 12 minutes 36 seconds 288 msec
