                         Program Version 4.2.0 -  RELEASE  -
|  1> # 4h2o.temelso.etal.dset.1h2o-orca.engrad-mp2.augccpvtz
|  2> ! MP2 aug-cc-pVTZ EnGrad TightSCF FrozenCore
|  3>
|  4> %pal
|  5>     nprocs 12
|  6> end
|  7>
|  8> %maxcore 8000
|  9>
| 10> %scf
| 11>     ConvForced true
| 12> end
| 13>
| 14> *xyz 0 1
| 15> O   0.032526650  -0.041897504   0.040241520
| 16> H  -0.385673350  -0.256497504  -0.802558480
| 17> H  -0.130673350   0.921602496   0.163741520
| 18> *
| 19>
| 20>
| 21> $new_job
| 22>
| 23> # 4h2o.temelso.etal.dset.1h2o-orca.engrad-mp2.augccpvtz
| 24> ! MP2 aug-cc-pVTZ EnGrad TightSCF FrozenCore
| 25>
| 26> %pal
| 27>     nprocs 12
| 28> end
| 29>
| 30> %maxcore 8000
| 31>
| 32> %scf
| 33>     ConvForced true
| 34> end
| 35>
| 36> *xyz 0 1
| 37> O   0.041718478   0.043408029  -0.028448231
| 38> H  -0.915881522  -0.095391971  -0.213148231
| 39> H   0.253618478  -0.593691971   0.664751769
| 40> *
| 41>
| 42>
| 43> $new_job
| 44>
| 45> # 4h2o.temelso.etal.dset.1h2o-orca.engrad-mp2.augccpvtz
| 46> ! MP2 aug-cc-pVTZ EnGrad TightSCF FrozenCore
| 47>
| 48> %pal
| 49>     nprocs 12
| 50> end
| 51>
| 52> %maxcore 8000
| 53>
| 54> %scf
| 55>     ConvForced true
| 56> end
| 57>
| 58> *xyz 0 1
| 59> O  -0.044761908   0.031111232   0.038238675
| 60> H   0.113438092  -0.936788768  -0.053861325
| 61> H   0.597138092   0.442911232  -0.553161325
| 62> *
| 63>
| 64>
| 65> $new_job
| 66>
| 67> # 4h2o.temelso.etal.dset.1h2o-orca.engrad-mp2.augccpvtz
| 68> ! MP2 aug-cc-pVTZ EnGrad TightSCF FrozenCore
| 69>
| 70> %pal
| 71>     nprocs 12
| 72> end
| 73>
| 74> %maxcore 8000
| 75>
| 76> %scf
| 77>     ConvForced true
| 78> end
| 79>
| 80> *xyz 0 1
| 81> O  -0.029477627  -0.032582596  -0.050043153
| 82> H   0.932922373   0.110417404   0.103656847
| 83> H  -0.464977627   0.406817404   0.690756847
| 84> *
| 85>
| 86>
| 87> $new_job
| 88>
| 89> # 4h2o.temelso.etal.dset.1h2o-orca.engrad-mp2.augccpvtz
| 90> ! MP2 aug-cc-pVTZ EnGrad TightSCF FrozenCore
| 91>
| 92> %pal
| 93>     nprocs 12
| 94> end
| 95>
| 96> %maxcore 8000
| 97>
| 98> %scf
| 99>     ConvForced true
|100> end
|101>
|102> *xyz 0 1
|103> O   0.039407934   0.045533954  -0.027832832
|104> H   0.296507934  -0.621166046   0.620667168
|105> H  -0.922092066  -0.101666046  -0.178832832
|106> *
|107>
|108>
|109> $new_job
|110>
|111> # 4h2o.temelso.etal.dset.1h2o-orca.engrad-mp2.augccpvtz
|112> ! MP2 aug-cc-pVTZ EnGrad TightSCF FrozenCore
|113>
|114> %pal
|115>     nprocs 12
|116> end
|117>
|118> %maxcore 8000
|119>
|120> %scf
|121>     ConvForced true
|122> end
|123>
|124> *xyz 0 1
|125> O  -0.046619295   0.025393613   0.039950604
|126> H   0.629680705   0.515993613  -0.442449396
|127> H   0.110380705  -0.919106387  -0.191749396
|128> *
|129>
|130>
|131> $new_job
|132>
|133> # 4h2o.temelso.etal.dset.1h2o-orca.engrad-mp2.augccpvtz
|134> ! MP2 aug-cc-pVTZ EnGrad TightSCF FrozenCore
|135>
|136> %pal
|137>     nprocs 12
|138> end
|139>
|140> %maxcore 8000
|141>
|142> %scf
|143>     ConvForced true
|144> end
|145>
|146> *xyz 0 1
|147> O  -0.039435906  -0.045505981   0.027844021
|148> H   0.922064094   0.101694019   0.179244021
|149> H  -0.296035906   0.620694019  -0.621255979
|150> *
|151>
|152>
|153> $new_job
|154>
|155> # 4h2o.temelso.etal.dset.1h2o-orca.engrad-mp2.augccpvtz
|156> ! MP2 aug-cc-pVTZ EnGrad TightSCF FrozenCore
|157>
|158> %pal
|159>     nprocs 12
|160> end
|161>
|162> %maxcore 8000
|163>
|164> %scf
|165>     ConvForced true
|166> end
|167>
|168> *xyz 0 1
|169> O   0.046596916  -0.025399208  -0.039972982
|170> H  -0.110303084   0.919100792   0.191427018
|171> H  -0.629403084  -0.515899208   0.443127018
|172> *
|173>
|174>
|175> $new_job
|176>
|177> # 4h2o.temelso.etal.dset.1h2o-orca.engrad-mp2.augccpvtz
|178> ! MP2 aug-cc-pVTZ EnGrad TightSCF FrozenCore
|179>
|180> %pal
|181>     nprocs 12
|182> end
|183>
|184> %maxcore 8000
|185>
|186> %scf
|187>     ConvForced true
|188> end
|189>
|190> *xyz 0 1
|191> O  -0.036655420  -0.048717247   0.024565621
|192> H  -0.329255420   0.694382753  -0.538834379
|193> H   0.911144580   0.078982753   0.148865621
|194> *
|195>
|196>
|197> $new_job
|198>
|199> # 4h2o.temelso.etal.dset.1h2o-orca.engrad-mp2.augccpvtz
|200> ! MP2 aug-cc-pVTZ EnGrad TightSCF FrozenCore
|201>
|202> %pal
|203>     nprocs 12
|204> end
|205>
|206> %maxcore 8000
|207>
|208> %scf
|209>     ConvForced true
|210> end
|211>
|212> *xyz 0 1
|213> O  -0.036465206   0.046054246  -0.031681875
|214> H   0.262634794   0.068454246   0.886818125
|215> H   0.316234794  -0.799545754  -0.383881875
|216> *
|217>
|218>
|219> $new_job
|220>
|221> # 4h2o.temelso.etal.dset.1h2o-orca.engrad-mp2.augccpvtz
|222> ! MP2 aug-cc-pVTZ EnGrad TightSCF FrozenCore
|223>
|224> %pal
|225>     nprocs 12
|226> end
|227>
|228> %maxcore 8000
|229>
|230> %scf
|231>     ConvForced true
|232> end
|233>
|234> *xyz 0 1
|235> O   0.048258495  -0.041623371  -0.015776600
|236> H  -0.693341505  -0.188323371   0.615323400
|237> H  -0.072741505   0.849076629  -0.364876600
|238> *
|239>
|240>
|241> $new_job
|242>
|243> # 4h2o.temelso.etal.dset.1h2o-orca.engrad-mp2.augccpvtz
|244> ! MP2 aug-cc-pVTZ EnGrad TightSCF FrozenCore
|245>
|246> %pal
|247>     nprocs 12
|248> end
|249>
|250> %maxcore 8000
|251>
|252> %scf
|253>     ConvForced true
|254> end
|255>
|256> *xyz 0 1
|257> O  -0.049701886  -0.045382901   0.013135978
|258> H  -0.015201886   0.637217099  -0.674564022
|259> H   0.804198114   0.083217099   0.466035978
|260> *
|261>
|262>                          ****END OF INPUT****
 Total Charge           Charge          ....    0
 Multiplicity           Mult            ....    1
 Number of Electrons    NEL             ....   10
MP2 TOTAL ENERGY:      -76.328439550 Eh
FINAL SINGLE POINT ENERGY       -76.328439550402
MP2 TOTAL ENERGY:      -76.328436270 Eh
FINAL SINGLE POINT ENERGY       -76.328436270467
MP2 TOTAL ENERGY:      -76.328436767 Eh
FINAL SINGLE POINT ENERGY       -76.328436766640
MP2 TOTAL ENERGY:      -76.328437944 Eh
FINAL SINGLE POINT ENERGY       -76.328437943752
MP2 TOTAL ENERGY:      -76.328448237 Eh
FINAL SINGLE POINT ENERGY       -76.328448236889
MP2 TOTAL ENERGY:      -76.328425432 Eh
FINAL SINGLE POINT ENERGY       -76.328425431605
MP2 TOTAL ENERGY:      -76.328446444 Eh
FINAL SINGLE POINT ENERGY       -76.328446444257
MP2 TOTAL ENERGY:      -76.328428554 Eh
FINAL SINGLE POINT ENERGY       -76.328428553952
MP2 TOTAL ENERGY:      -76.328669493 Eh
FINAL SINGLE POINT ENERGY       -76.328669493314
MP2 TOTAL ENERGY:      -76.328582845 Eh
FINAL SINGLE POINT ENERGY       -76.328582845202
MP2 TOTAL ENERGY:      -76.328350390 Eh
FINAL SINGLE POINT ENERGY       -76.328350390484

CARTESIAN COORDINATES (ANGSTROEM)
---------------------------------
  O     -0.049702   -0.045383    0.013136
  H     -0.015202    0.637217   -0.674564
  H      0.804198    0.083217    0.466036

 Multiplicity           Mult            ....    1
 Number of Electrons    NEL             ....   10
 Basis Dimension        Dim             ....   92

ORBITAL ENERGIES
----------------

  NO   OCC          E(Eh)            E(eV)
   0   2.0000     -20.571012      -559.7657
   1   2.0000      -1.347823       -36.6761
   2   2.0000      -0.704537       -19.1714
   3   2.0000      -0.587237       -15.9795
   4   2.0000      -0.509929       -13.8759
   5   0.0000       0.029076         0.7912
   6   0.0000       0.047792         1.3005
   7   0.0000       0.135489         3.6868
   8   0.0000       0.159682         4.3452
   9   0.0000       0.175269         4.7693

MULLIKEN ATOMIC CHARGES
-----------------------
   0 O :   -0.443676
   1 H :    0.219867
   2 H :    0.223809
Sum of atomic charges:   -0.0000000

LOEWDIN ATOMIC CHARGES
----------------------
   0 O :    1.006097
   1 H :   -0.508720
   2 H :   -0.497377

  Mayer bond orders larger than 0.100000
B(  0-O ,  1-H ) :   0.9514 B(  0-O ,  2-H ) :   0.9485

MP2 TOTAL ENERGY:      -76.328683836 Eh
FINAL SINGLE POINT ENERGY       -76.328683836239

DIPOLE MOMENT
-------------
                                X             Y             Z
Electronic contribution:     -0.19875      -0.18073       0.05175
Nuclear contribution   :      0.73947       0.67521      -0.19544
                        -----------------------------------------
Total Dipole Moment    :      0.54072       0.49448      -0.14369
                        -----------------------------------------
Magnitude (a.u.)       :      0.74668
Magnitude (Debye)      :      1.89792

Rotational constants in cm-1:    25.069664    14.673851     9.256064
Rotational constants in MHz : 751569.609475 439910.976542 277489.809506

                             ****ORCA TERMINATED NORMALLY****
TOTAL RUN TIME: 0 days 0 hours 1 minutes 24 seconds 103 msec
