                         Program Version 4.2.0 -  RELEASE  -
|  1> # 6h2o.temelso.etal.dset.3h2o-orca.engrad-mp2.augccpvtz-50.to.99
|  2> ! MP2 aug-cc-pVTZ EnGrad TightSCF FrozenCore
|  3>
|  4> %pal
|  5>     nprocs 12
|  6> end
|  7>
|  8> %maxcore 8000
|  9>
| 10> %scf
| 11>     ConvForced true
| 12> end
| 13>
| 14> *xyz 0 1
| 15> O  -1.617657150  -0.746575283  -1.055785715
| 16> H  -0.834257150  -1.003975283  -0.525485715
| 17> H  -1.461857150   0.195224717  -1.245285715
| 18> O   0.681942850  -1.071975283   0.517414285
| 19> H   1.490142850  -1.453775283   0.153914285
| 20> H   0.868942850  -0.111575283   0.593114285
| 21> O   0.872042850   1.702424717   0.517414285
| 22> H   0.068542850   1.985824717   0.032514285
| 23> H   0.879242850   2.231724717   1.323914285
| 24> *
| 25>
| 26>
| 27> $new_job
| 28>
| 29> # 6h2o.temelso.etal.dset.3h2o-orca.engrad-mp2.augccpvtz-50.to.99
| 30> ! MP2 aug-cc-pVTZ EnGrad TightSCF FrozenCore
| 31>
| 32> %pal
| 33>     nprocs 12
| 34> end
| 35>
| 36> %maxcore 8000
| 37>
| 38> %scf
| 39>     ConvForced true
| 40> end
| 41>
| 42> *xyz 0 1
| 43> O  -0.052013760  -0.856161573  -0.951286684
| 44> H   0.731386240  -1.113561573  -0.420986684
| 45> H   0.103786240   0.085638427  -1.140786684
| 46> O   2.247586240  -1.181561573   0.621913316
| 47> H   3.055786240  -1.563361573   0.258413316
| 48> H   2.434586240  -0.221161573   0.697613316
| 49> O  -2.284413760   2.004038427   0.274513316
| 50> H  -2.468413760   1.031738427   0.303413316
| 51> H  -2.446813760   2.315438427   1.173213316
| 52> *
| 53>
| 54>
| 55> $new_job
| 56>
| 57> # 6h2o.temelso.etal.dset.3h2o-orca.engrad-mp2.augccpvtz-50.to.99
| 58> ! MP2 aug-cc-pVTZ EnGrad TightSCF FrozenCore
| 59>
| 60> %pal
| 61>     nprocs 12
| 62> end
| 63>
| 64> %maxcore 8000
| 65>
| 66> %scf
| 67>     ConvForced true
| 68> end
| 69>
| 70> *xyz 0 1
| 71> O  -0.851541946  -0.901985719  -0.540918306
| 72> H  -0.068141946  -1.159385719  -0.010618306
| 73> H  -0.695741946   0.039814281  -0.730418306
| 74> O   1.448058054  -1.227385719   1.032281694
| 75> H   2.256258054  -1.609185719   0.668781694
| 76> H   1.635058054  -0.266985719   1.107981694
| 77> O  -0.653641946   2.019914281  -0.477718306
| 78> H  -0.684041946   2.637614281  -1.218618306
| 79> H  -1.536541946   2.095714281  -0.033718306
| 80> *
| 81>
| 82>
| 83> $new_job
| 84>
| 85> # 6h2o.temelso.etal.dset.3h2o-orca.engrad-mp2.augccpvtz-50.to.99
| 86> ! MP2 aug-cc-pVTZ EnGrad TightSCF FrozenCore
| 87>
| 88> %pal
| 89>     nprocs 12
| 90> end
| 91>
| 92> %maxcore 8000
| 93>
| 94> %scf
| 95>     ConvForced true
| 96> end
| 97>
| 98> *xyz 0 1
| 99> O  -0.081971704  -1.785327179  -0.962651057
|100> H   0.701428296  -2.042727179  -0.432351057
|101> H   0.073828296  -0.843527179  -1.152151057
|102> O   2.407728296   0.663672821   0.610548943
|103> H   1.604228296   0.947072821   0.125648943
|104> H   2.414928296   1.192972821   1.417048943
|105> O  -2.314371704   1.074872821   0.263148943
|106> H  -2.498371704   0.102572821   0.292048943
|107> H  -2.476771704   1.386272821   1.161848943
|108> *
|109>
|110>
|111> $new_job
|112>
|113> # 6h2o.temelso.etal.dset.3h2o-orca.engrad-mp2.augccpvtz-50.to.99
|114> ! MP2 aug-cc-pVTZ EnGrad TightSCF FrozenCore
|115>
|116> %pal
|117>     nprocs 12
|118> end
|119>
|120> %maxcore 8000
|121>
|122> %scf
|123>     ConvForced true
|124> end
|125>
|126> *xyz 0 1
|127> O  -0.881499890  -1.831151325  -0.552282680
|128> H  -0.098099890  -2.088551325  -0.021982680
|129> H  -0.725699890  -0.889351325  -0.741782680
|130> O   1.608200110   0.617848675   1.020917320
|131> H   0.804700110   0.901248675   0.536017320
|132> H   1.615400110   1.147148675   1.827417320
|133> O  -0.683599890   1.090748675  -0.489082680
|134> H  -0.713999890   1.708448675  -1.229982680
|135> H  -1.566499890   1.166548675  -0.045082680
|136> *
|137>
|138>
|139> $new_job
|140>
|141> # 6h2o.temelso.etal.dset.3h2o-orca.engrad-mp2.augccpvtz-50.to.99
|142> ! MP2 aug-cc-pVTZ EnGrad TightSCF FrozenCore
|143>
|144> %pal
|145>     nprocs 12
|146> end
|147>
|148> %maxcore 8000
|149>
|150> %scf
|151>     ConvForced true
|152> end
|153>
|154> *xyz 0 1
|155> O   0.684143499  -1.940737615  -0.447783649
|156> H   1.467543499  -2.198137615   0.082516351
|157> H   0.839943499  -0.998937615  -0.637283649
|158> O  -1.548256501   0.919462385   0.778016351
|159> H  -1.732256501  -0.052837615   0.806916351
|160> H  -1.710656501   1.230862385   1.676716351
|161> O   0.882043499   0.981162385  -0.384583649
|162> H   0.851643499   1.598862385  -1.125483649
|163> H  -0.000856501   1.056962385   0.059416351
|164> *
|165>
|166>
|167> $new_job
|168>
|169> # 6h2o.temelso.etal.dset.3h2o-orca.engrad-mp2.augccpvtz-50.to.99
|170> ! MP2 aug-cc-pVTZ EnGrad TightSCF FrozenCore
|171>
|172> %pal
|173>     nprocs 12
|174> end
|175>
|176> %maxcore 8000
|177>
|178> %scf
|179>     ConvForced true
|180> end
|181>
|182> *xyz 0 1
|183> O   1.450050648  -2.000287505   0.097871367
|184> H   2.258250648  -2.382087505  -0.265628633
|185> H   1.637050648  -1.039887505   0.173571367
|186> O   1.640150648   0.774112495   0.097871367
|187> H   0.836650648   1.057512495  -0.387028633
|188> H   1.647350648   1.303412495   0.904371367
|189> O  -3.081949352   1.185312495  -0.249528633
|190> H  -3.265949352   0.213012495  -0.220628633
|191> H  -3.244349352   1.496712495   0.649171367
|192> *
|193>
|194>
|195> $new_job
|196>
|197> # 6h2o.temelso.etal.dset.3h2o-orca.engrad-mp2.augccpvtz-50.to.99
|198> ! MP2 aug-cc-pVTZ EnGrad TightSCF FrozenCore
|199>
|200> %pal
|201>     nprocs 12
|202> end
|203>
|204> %maxcore 8000
|205>
|206> %scf
|207>     ConvForced true
|208> end
|209>
|210> *xyz 0 1
|211> O   0.650522463  -2.046111651   0.508239744
|212> H   1.458722463  -2.427911651   0.144739744
|213> H   0.837522463  -1.085711651   0.583939744
|214> O   0.840622463   0.728288349   0.508239744
|215> H   0.037122463   1.011688349   0.023339744
|216> H   0.847822463   1.257588349   1.314739744
|217> O  -1.451177537   1.201188349  -1.001760256
|218> H  -1.481577537   1.818888349  -1.742660256
|219> H  -2.334077537   1.276988349  -0.557760256
|220> *
|221>
|222>
|223> $new_job
|224>
|225> # 6h2o.temelso.etal.dset.3h2o-orca.engrad-mp2.augccpvtz-50.to.99
|226> ! MP2 aug-cc-pVTZ EnGrad TightSCF FrozenCore
|227>
|228> %pal
|229>     nprocs 12
|230> end
|231>
|232> %maxcore 8000
|233>
|234> %scf
|235>     ConvForced true
|236> end
|237>
|238> *xyz 0 1
|239> O   2.216165852  -2.155697941   0.612738775
|240> H   3.024365852  -2.537497941   0.249238775
|241> H   2.403165852  -1.195297941   0.688438775
|242> O  -2.315834148   1.029902059   0.265338775
|243> H  -2.499834148   0.057602059   0.294238775
|244> H  -2.478234148   1.341302059   1.164038775
|245> O   0.114465852   1.091602059  -0.897261225
|246> H   0.084065852   1.709302059  -1.638161225
|247> H  -0.768434148   1.167402059  -0.453261225
|248> *
|249>
|250>
|251> $new_job
|252>
|253> # 6h2o.temelso.etal.dset.3h2o-orca.engrad-mp2.augccpvtz-50.to.99
|254> ! MP2 aug-cc-pVTZ EnGrad TightSCF FrozenCore
|255>
|256> %pal
|257>     nprocs 12
|258> end
|259>
|260> %maxcore 8000
|261>
|262> %scf
|263>     ConvForced true
|264> end
|265>
|266> *xyz 0 1
|267> O   2.376307908  -0.310463546   0.601374401
|268> H   1.572807908  -0.027063546   0.116474401
|269> H   2.383507908   0.218836454   1.407874401
|270> O  -2.345792092   0.100736454   0.253974401
|271> H  -2.529792092  -0.871563546   0.282874401
|272> H  -2.508192092   0.412136454   1.152674401
|273> O   0.084507908   0.162436454  -0.908625599
|274> H   0.054107908   0.780136454  -1.649525599
|275> H  -0.798392092   0.238236454  -0.464625599
|276> *
|277>
|278>
|279> $new_job
|280>
|281> # 6h2o.temelso.etal.dset.3h2o-orca.engrad-mp2.augccpvtz-50.to.99
|282> ! MP2 aug-cc-pVTZ EnGrad TightSCF FrozenCore
|283>
|284> %pal
|285>     nprocs 12
|286> end
|287>
|288> %maxcore 8000
|289>
|290> %scf
|291>     ConvForced true
|292> end
|293>
|294> *xyz 0 1
|295> O   0.701798062   1.924812107  -0.116477886
|296> H   1.592898062   2.190212107   0.141722114
|297> H   0.794998062   0.988812107  -0.426877886
|298> O   0.732898062  -0.703587893  -0.737677886
|299> H   0.552998062  -1.030887893  -1.627377886
|300> H  -0.043001938  -0.996487893  -0.194177886
|301> O  -1.385301938  -1.193687893   0.879622114
|302> H  -1.453301938  -0.327687893   1.318422114
|303> H  -2.228701938  -1.261087893   0.384022114
|304> *
|305>
|306>
|307> $new_job
|308>
|309> # 6h2o.temelso.etal.dset.3h2o-orca.engrad-mp2.augccpvtz-50.to.99
|310> ! MP2 aug-cc-pVTZ EnGrad TightSCF FrozenCore
|311>
|312> %pal
|313>     nprocs 12
|314> end
|315>
|316> %maxcore 8000
|317>
|318> %scf
|319>     ConvForced true
|320> end
|321>
|322> *xyz 0 1
|323> O   1.488254020   1.865671404   0.376871793
|324> H   2.379354020   2.131071404   0.635071793
|325> H   1.581454020   0.929671404   0.066471793
|326> O   1.519354020  -0.762728596  -0.244328207
|327> H   1.339454020  -1.090028596  -1.134028207
|328> H   0.743454020  -1.055628596   0.299171793
|329> O  -2.956445980  -1.064228596  -0.132728207
|330> H  -3.798845980  -1.436128596   0.155871793
|331> H  -3.057045980  -0.093528596  -0.019628207
|332> *
|333>
|334>
|335> $new_job
|336>
|337> # 6h2o.temelso.etal.dset.3h2o-orca.engrad-mp2.augccpvtz-50.to.99
|338> ! MP2 aug-cc-pVTZ EnGrad TightSCF FrozenCore
|339>
|340> %pal
|341>     nprocs 12
|342> end
|343>
|344> %maxcore 8000
|345>
|346> %scf
|347>     ConvForced true
|348> end
|349>
|350> *xyz 0 1
|351> O   1.439927319   0.955679033   0.213360385
|352> H   2.331027319   1.221079033   0.471560385
|353> H   1.533127319   0.019679033  -0.097039615
|354> O   1.471027319  -1.672720967  -0.407839615
|355> H   1.291127319  -2.000020967  -1.297539615
|356> H   0.695127319  -1.965620967   0.135660385
|357> O  -2.963772681   0.747879033   0.225260385
|358> H  -2.844672681   1.385679033  -0.489339615
|359> H  -2.167272681   0.849679033   0.788060385
|360> *
|361>
|362>
|363> $new_job
|364>
|365> # 6h2o.temelso.etal.dset.3h2o-orca.engrad-mp2.augccpvtz-50.to.99
|366> ! MP2 aug-cc-pVTZ EnGrad TightSCF FrozenCore
|367>
|368> %pal
|369>     nprocs 12
|370> end
|371>
|372> %maxcore 8000
|373>
|374> %scf
|375>     ConvForced true
|376> end
|377>
|378> *xyz 0 1
|379> O   0.683081867   0.973749228  -0.334893678
|380> H   1.574181867   1.239149228  -0.076693678
|381> H   0.776281867   0.037749228  -0.645293678
|382> O   0.714181867  -1.654650772  -0.956093678
|383> H   0.534281867  -1.981950772  -1.845793678
|384> H  -0.061718133  -1.947550772  -0.412593678
|385> O  -1.449718133   0.715649228   1.294506322
|386> H  -1.372518133   1.190049228   2.131106322
|387> H  -0.617818133   0.910949228   0.793406322
|388> *
|389>
|390>
|391> $new_job
|392>
|393> # 6h2o.temelso.etal.dset.3h2o-orca.engrad-mp2.augccpvtz-50.to.99
|394> ! MP2 aug-cc-pVTZ EnGrad TightSCF FrozenCore
|395>
|396> %pal
|397>     nprocs 12
|398> end
|399>
|400> %maxcore 8000
|999> H   1.090800331   0.825308105  -1.075587828
|1000> H  -0.017999669   0.905608105  -0.002687828
|1001> O   0.682700331  -2.317791895  -0.204187828
|1002> H   1.294400331  -2.561391895   0.500812172
|1003> H   0.710800331  -1.331991895  -0.231287828
|1004> *
|1005>
|1006>
|1007> $new_job
|1008>
|1009> # 6h2o.temelso.etal.dset.3h2o-orca.engrad-mp2.augccpvtz-50.to.99
|1010> ! MP2 aug-cc-pVTZ EnGrad TightSCF FrozenCore
|1011>
|1012> %pal
|1013>     nprocs 12
|1014> end
|1015>
|1016> %maxcore 8000
|1017>
|1018> %scf
|1019>     ConvForced true
|1020> end
|1021>
|1022> *xyz 0 1
|1023> O   0.110438662   0.877482659   0.253069886
|1024> H   0.103338662   1.344982659   1.096869886
|1025> H  -0.765461338   0.425582659   0.211269886
|1026> O   2.324738662  -0.547517341  -0.429730114
|1027> H   2.628938662  -0.121317341  -1.239930114
|1028> H   1.520138662  -0.041017341  -0.167030114
|1029> O  -2.322061338  -0.341417341   0.200369886
|1030> H  -2.932261338  -0.099317341  -0.506430114
|1031> H  -2.350361338  -1.327117341   0.228869886
|1032> *
|1033>
|1034>
|1035> $new_job
|1036>
|1037> # 6h2o.temelso.etal.dset.3h2o-orca.engrad-mp2.augccpvtz-50.to.99
|1038> ! MP2 aug-cc-pVTZ EnGrad TightSCF FrozenCore
|1039>
|1040> %pal
|1041>     nprocs 12
|1042> end
|1043>
|1044> %maxcore 8000
|1045>
|1046> %scf
|1047>     ConvForced true
|1048> end
|1049>
|1050> *xyz 0 1
|1051> O  -0.607760891   3.152923912   0.420991540
|1052> H  -0.614860891   3.620423912   1.264791540
|1053> H  -1.483660891   2.701023912   0.379191540
|1054> O  -0.930660891  -2.205476088  -0.258308460
|1055> H  -0.054060891  -1.755076088  -0.215608460
|1056> H  -0.924460891  -2.671376088  -1.103008460
|1057> O   1.502639109  -0.988976088  -0.200608460
|1058> H   2.114339109  -1.232576088   0.504391540
|1059> H   1.530739109  -0.003176088  -0.227708460
|1060> *
|1061>
|1062>
|1063> $new_job
|1064>
|1065> # 6h2o.temelso.etal.dset.3h2o-orca.engrad-mp2.augccpvtz-50.to.99
|1066> ! MP2 aug-cc-pVTZ EnGrad TightSCF FrozenCore
|1067>
|1068> %pal
|1069>     nprocs 12
|1070> end
|1071>
|1072> %maxcore 8000
|1073>
|1074> %scf
|1075>     ConvForced true
|1076> end
|1077>
|1078> *xyz 0 1
|1079> O   0.930377440   2.206298466   0.256649253
|1080> H   0.923277440   2.673798466   1.100449253
|1081> H   0.054477440   1.754398466   0.214849253
|1082> O   0.607477440  -3.152101534  -0.422650747
|1083> H   1.484077440  -2.701701534  -0.379950747
|1084> H   0.613677440  -3.618001534  -1.267350747
|1085> O  -1.502122560   0.987398466   0.203949253
|1086> H  -2.112322560   1.229498466  -0.502850747
|1087> H  -1.530422560   0.001698466   0.232449253
|1088> *
|1089>
|1090>
|1091> $new_job
|1092>
|1093> # 6h2o.temelso.etal.dset.3h2o-orca.engrad-mp2.augccpvtz-50.to.99
|1094> ! MP2 aug-cc-pVTZ EnGrad TightSCF FrozenCore
|1095>
|1096> %pal
|1097>     nprocs 12
|1098> end
|1099>
|1100> %maxcore 8000
|1101>
|1102> %scf
|1103>     ConvForced true
|1104> end
|1105>
|1106> *xyz 0 1
|1107> O   0.123809017   1.786668525   0.209818058
|1108> H   0.116709017   2.254168525   1.053618058
|1109> H  -0.752090983   1.334768525   0.168018058
|1110> O   2.234209017  -2.355231475  -0.411781942
|1111> H   2.845909017  -2.598831475   0.293218058
|1112> H   2.262309017  -1.369431475  -0.438881942
|1113> O  -2.308690983   0.567768525   0.157118058
|1114> H  -2.918890983   0.809868525  -0.549681942
|1115> H  -2.336990983  -0.417931475   0.185618058
|1116> *
|1117>
|1118>
|1119> $new_job
|1120>
|1121> # 6h2o.temelso.etal.dset.3h2o-orca.engrad-mp2.augccpvtz-50.to.99
|1122> ! MP2 aug-cc-pVTZ EnGrad TightSCF FrozenCore
|1123>
|1124> %pal
|1125>     nprocs 12
|1126> end
|1127>
|1128> %maxcore 8000
|1129>
|1130> %scf
|1131>     ConvForced true
|1132> end
|1133>
|1134> *xyz 0 1
|1135> O  -2.339757503  -0.362783210   0.471259798
|1136> H  -1.533557503  -0.867183210   0.209359798
|1137> H  -2.644057503  -0.790783210   1.280459798
|1138> O   2.413742497   2.148516790  -0.214940202
|1139> H   2.717942497   2.574716790  -1.025140202
|1140> H   1.609142497   2.655016790   0.047759798
|1141> O  -0.123457503  -1.784883210  -0.211440202
|1142> H   0.753142497  -1.334483210  -0.168740202
|1143> H  -0.117257503  -2.250783210  -1.056140202
|1144> *
|1145>
|1146>
|1147> $new_job
|1148>
|1149> # 6h2o.temelso.etal.dset.3h2o-orca.engrad-mp2.augccpvtz-50.to.99
|1150> ! MP2 aug-cc-pVTZ EnGrad TightSCF FrozenCore
|1151>
|1152> %pal
|1153>     nprocs 12
|1154> end
|1155>
|1156> %maxcore 8000
|1157>
|1158> %scf
|1159>     ConvForced true
|1160> end
|1161>
|1162> *xyz 0 1
|1163> O  -3.146325926  -0.782413151   0.424428603
|1164> H  -2.340125926  -1.286813151   0.162528603
|1165> H  -3.450625926  -1.210413151   1.233628603
|1166> O   1.607174074   1.728886849  -0.261771397
|1167> H   1.911374074   2.155086849  -1.071971397
|1168> H   0.802574074   2.235386849   0.000928603
|1169> O   1.503274074  -0.988013151  -0.200571397
|1170> H   2.114974074  -1.231613151   0.504428603
|1171> H   1.531374074  -0.002213151  -0.227671397
|1172> *
|1173>
|1174>
|1175> $new_job
|1176>
|1177> # 6h2o.temelso.etal.dset.3h2o-orca.engrad-mp2.augccpvtz-50.to.99
|1178> ! MP2 aug-cc-pVTZ EnGrad TightSCF FrozenCore
|1179>
|1180> %pal
|1181>     nprocs 12
|1182> end
|1183>
|1184> %maxcore 8000
|1185>
|1186> %scf
|1187>     ConvForced true
|1188> end
|1189>
|1190> *xyz 0 1
|1191> O  -1.608187595  -1.729038597   0.260086316
|1192> H  -0.801987595  -2.233438597  -0.001813684
|1193> H  -1.912487595  -2.157038597   1.069286316
|1194> O   3.145312405   0.782261403  -0.426113684
|1195> H   3.449512405   1.208461403  -1.236313684
|1196> H   2.340712405   1.288761403  -0.163413684
|1197> O  -1.501487595   0.988361403   0.203986316
|1198> H  -2.111687595   1.230461403  -0.502813684
|1199> H  -1.529787595   0.002661403   0.232486316
|1200> *
|1201>
|1202>
|1203> $new_job
|1204>
|1205> # 6h2o.temelso.etal.dset.3h2o-orca.engrad-mp2.augccpvtz-50.to.99
|1206> ! MP2 aug-cc-pVTZ EnGrad TightSCF FrozenCore
|1207>
|1208> %pal
|1209>     nprocs 12
|1210> end
|1211>
|1212> %maxcore 8000
|1213>
|1214> %scf
|1215>     ConvForced true
|1216> end
|1217>
|1218> *xyz 0 1
|1219> O  -2.326387148   0.546402656   0.428007970
|1220> H  -1.520187148   0.042002656   0.166107970
|1221> H  -2.630687148   0.118402656   1.237207970
|1222> O  -0.110087148  -0.875697344  -0.254692030
|1223> H   0.766512852  -0.425297344  -0.211992030
|1224> H  -0.103887148  -1.341597344  -1.099392030
|1225> O   2.323212852   0.340802656  -0.196992030
|1226> H   2.934912852   0.097202656   0.508007970
|1227> H   2.351312852   1.326602656  -0.224092030
|1228> *
|1229>
|1230>
|1231> $new_job
|1232>
|1233> # 6h2o.temelso.etal.dset.3h2o-orca.engrad-mp2.augccpvtz-50.to.99
|1234> ! MP2 aug-cc-pVTZ EnGrad TightSCF FrozenCore
|1235>
|1236> %pal
|1237>     nprocs 12
|1238> end
|1239>
|1240> %maxcore 8000
|1241>
|1242> %scf
|1243>     ConvForced true
|1244> end
|1245>
|1246> *xyz 0 1
|1247> O  -0.788248817  -0.400222790   0.263665683
|1248> H   0.017951183  -0.904622790   0.001765683
|1249> H  -1.092548817  -0.828222790   1.072865683
|1250> O   1.428051183  -1.822322790  -0.419034317
|1251> H   2.304651183  -1.371922790  -0.376334317
|1252> H   1.434251183  -2.288222790  -1.263734317
|1253> O  -0.681548817   2.317177210   0.207565683
|1254> H  -1.291748817   2.559277210  -0.499234317
|1255> H  -0.709848817   1.331477210   0.236065683
|1256> *
|1257>
|1258>
|1259> $new_job
|1260>
|1261> # 6h2o.temelso.etal.dset.3h2o-orca.engrad-mp2.augccpvtz-50.to.99
|1262> ! MP2 aug-cc-pVTZ EnGrad TightSCF FrozenCore
|1263>
|1264> %pal
|1265>     nprocs 12
|1266> end
|1267>
|1268> %maxcore 8000
|1269>
|1270> %scf
|1271>     ConvForced true
|1272> end
|1273>
|1274> *xyz 0 1
|1275> O  -1.594817240  -0.819852731   0.216834489
|1276> H  -0.788617240  -1.324252731  -0.045065511
|1277> H  -1.899117240  -1.247852731   1.026034489
|1278> O   3.054782760  -1.025452731  -0.408165511
|1279> H   3.666482760  -1.269052731   0.296834489
|1280> H   3.082882760  -0.039652731  -0.435265511
|1281> O  -1.488117240   1.897547269   0.160734489
|1282> H  -2.098317240   2.139647269  -0.546065511
|1283> H  -1.516417240   0.911847269   0.189234489
|1284> *
|1285>
|1286>
|1287> $new_job
|1288>
|1289> # 6h2o.temelso.etal.dset.3h2o-orca.engrad-mp2.augccpvtz-50.to.99
|1290> ! MP2 aug-cc-pVTZ EnGrad TightSCF FrozenCore
|1291>
|1292> %pal
|1293>     nprocs 12
|1294> end
|1295>
|1296> %maxcore 8000
|1297>
|1298> %scf
|1299>     ConvForced true
|1300> end
|1301>
|1302> *xyz 0 1
|1303> O   0.861304207   2.185821406  -0.009042358
|1304> H   1.165504207   2.612021406  -0.819242358
|1305> H   0.056704207   2.692321406   0.253657642
|1306> O  -1.675895793  -1.747578594  -0.005542358
|1307> H  -0.799295793  -1.297178594   0.037157642
|1308> H  -1.669695793  -2.213478594  -0.850242358
|1309> O   0.757404207  -0.531078594   0.052157642
|1310> H   1.369104207  -0.774678594   0.757157642
|1311> H   0.785504207   0.454721406   0.025057642
|1312> *
|1313>
|1314>
|1315> $new_job
|1316>
|1317> # 6h2o.temelso.etal.dset.3h2o-orca.engrad-mp2.augccpvtz-50.to.99
|1318> ! MP2 aug-cc-pVTZ EnGrad TightSCF FrozenCore
|1319>
|1320> %pal
|1321>     nprocs 12
|1322> end
|1323>
|1324> %maxcore 8000
|1325>
|1326> %scf
|1327>     ConvForced true
|1328> end
|1329>
|1330> *xyz 0 1
|1331> O   2.399442538   1.239195960  -0.173384645
|1332> H   2.703642538   1.665395960  -0.983584645
|1333> H   1.594842538   1.745695960   0.089315355
|1334> O  -0.137757462  -2.694204040  -0.169884645
|1335> H   0.738842538  -2.243804040  -0.127184645
|1336> H  -0.131557462  -3.160104040  -1.014584645
|1337> O  -2.247357462   1.445295960   0.456715355
|1338> H  -2.857557462   1.687395960  -0.250084645
|1339> H  -2.275657462   0.459595960   0.485215355
|1340> *
|1341>
|1342>
|1343> $new_job
|1344>
|1345> # 6h2o.temelso.etal.dset.3h2o-orca.engrad-mp2.augccpvtz-50.to.99
|1346> ! MP2 aug-cc-pVTZ EnGrad TightSCF FrozenCore
|1347>
|1348> %pal
|1349>     nprocs 12
|1350> end
|1351>
|1352> %maxcore 8000
|1353>
|1354> %scf
|1355>     ConvForced true
|1356> end
|1357>
|1358> *xyz 0 1
|1359> O   1.592874115   0.819566019  -0.220215840
|1360> H   1.897074115   1.245766019  -1.030415840
|1361> H   0.788274115   1.326066019   0.042484160
|1362> O   1.488974115  -1.897333981  -0.159015840
|1363> H   2.100674115  -2.140933981   0.545984160
|1364> H   1.517074115  -0.911533981  -0.186115840
|1365> O  -3.053925885   1.025666019   0.409884160
|1366> H  -3.664125885   1.267766019  -0.296915840
|1367> H  -3.082225885   0.039966019   0.438384160
|1368> *
|1369>
|1370>
|1371> $new_job
|1372>
|1373> # 6h2o.temelso.etal.dset.3h2o-orca.engrad-mp2.augccpvtz-50.to.99
|1374> ! MP2 aug-cc-pVTZ EnGrad TightSCF FrozenCore
|1375>
|1376> %pal
|1377>     nprocs 12
|1378> end
|1379>
|1380> %maxcore 8000
|1381>
|1382> %scf
|1383>     ConvForced true
|1384> end
|1385>
|1386> *xyz 0 1
|1387> O  -0.124387107  -1.785018174  -0.213136473
|1388> H   0.752212893  -1.334618174  -0.170436473
|1389> H  -0.118187107  -2.250918174  -1.057836473
|1390> O   2.308912893  -0.568518174  -0.155436473
|1391> H   2.920612893  -0.812118174   0.549563527
|1392> H   2.337012893   0.417281826  -0.182536473
|1393> O  -2.233987107   2.354481826   0.413463527
|1394> H  -2.844187107   2.596581826  -0.293336473
|1395> H  -2.262287107   1.368781826   0.441963527
|1396> *
|1397>
|1398>                          ****END OF INPUT****
 Total Charge           Charge          ....    0
 Multiplicity           Mult            ....    1
 Number of Electrons    NEL             ....   30
MP2 TOTAL ENERGY:     -229.001584755 Eh
FINAL SINGLE POINT ENERGY      -229.001584754789
MP2 TOTAL ENERGY:     -228.994322576 Eh
FINAL SINGLE POINT ENERGY      -228.994322575949
MP2 TOTAL ENERGY:     -228.998590060 Eh
FINAL SINGLE POINT ENERGY      -228.998590060211
MP2 TOTAL ENERGY:     -228.989907509 Eh
FINAL SINGLE POINT ENERGY      -228.989907508737
MP2 TOTAL ENERGY:     -228.999841621 Eh
FINAL SINGLE POINT ENERGY      -228.999841621430
MP2 TOTAL ENERGY:     -229.005088810 Eh
FINAL SINGLE POINT ENERGY      -229.005088809832
FINAL SINGLE POINT ENERGY      -228.995513629344
FINAL SINGLE POINT ENERGY      -229.003049324820
FINAL SINGLE POINT ENERGY      -228.993975863316
FINAL SINGLE POINT ENERGY      -229.002643714224
FINAL SINGLE POINT ENERGY      -228.995163995492
FINAL SINGLE POINT ENERGY      -228.995209624418
FINAL SINGLE POINT ENERGY      -228.995211008462
FINAL SINGLE POINT ENERGY      -229.003896147442
MP2 TOTAL ENERGY:     -229.003919218 Eh
FINAL SINGLE POINT ENERGY      -229.003919217817
MP2 TOTAL ENERGY:     -228.995135968 Eh
FINAL SINGLE POINT ENERGY      -228.995135968245
MP2 TOTAL ENERGY:     -229.003928847 Eh
FINAL SINGLE POINT ENERGY      -229.003928847196
MP2 TOTAL ENERGY:     -228.989509129 Eh
FINAL SINGLE POINT ENERGY      -228.989509128640
MP2 TOTAL ENERGY:     -228.995137155 Eh
FINAL SINGLE POINT ENERGY      -228.995137154609

CARTESIAN COORDINATES (ANGSTROEM)
---------------------------------
  O     -0.124387   -1.785018   -0.213136
  H      0.752213   -1.334618   -0.170436
  H     -0.118187   -2.250918   -1.057836
  O      2.308913   -0.568518   -0.155436
  H      2.920613   -0.812118    0.549564
  H      2.337013    0.417282   -0.182536
  O     -2.233987    2.354482    0.413464
  H     -2.844187    2.596582   -0.293336
  H     -2.262287    1.368782    0.441964

 Multiplicity           Mult            ....    1
 Number of Electrons    NEL             ....   30
 Basis Dimension        Dim             ....  276

ORBITAL ENERGIES
----------------

  NO   OCC          E(Eh)            E(eV)
   0   2.0000     -20.601705      -560.6009
   1   2.0000     -20.561839      -559.5161
   2   2.0000     -20.529501      -558.6361
   3   2.0000      -1.381550       -37.5939
   4   2.0000      -1.336054       -36.3559
   5   2.0000      -1.309183       -35.6247
   6   2.0000      -0.741709       -20.1829
   7   2.0000      -0.699893       -19.0451
   8   2.0000      -0.694517       -18.8988
   9   2.0000      -0.617605       -16.8059
  10   2.0000      -0.573343       -15.6015
  11   2.0000      -0.554378       -15.0854
  12   2.0000      -0.528383       -14.3780
  13   2.0000      -0.500857       -13.6290
  14   2.0000      -0.473885       -12.8951
  15   0.0000       0.020968         0.5706
  16   0.0000       0.036404         0.9906
  17   0.0000       0.046836         1.2745
  18   0.0000       0.051072         1.3897
  19   0.0000       0.065132         1.7723

MULLIKEN ATOMIC CHARGES
-----------------------
   0 O :   -0.523466
   1 H :    0.268892
   2 H :    0.198334
   3 O :   -0.386757
   4 H :    0.210334
   5 H :    0.233625
   6 O :   -0.466194
   7 H :    0.215787
   8 H :    0.249445
Sum of atomic charges:    0.0000000

LOEWDIN ATOMIC CHARGES
----------------------
   0 O :    1.016408
   1 H :   -0.736240
   2 H :   -0.515501
   3 O :    1.092325
   4 H :   -0.449442
   5 H :   -0.405391
   6 O :    0.994779
   7 H :   -0.521407
   8 H :   -0.475532

  Mayer bond orders larger than 0.100000
B(  0-O ,  1-H ) :   0.8673 B(  0-O ,  2-H ) :   0.9747 B(  3-O ,  4-H ) :   0.9639
B(  3-O ,  5-H ) :   0.9454 B(  6-O ,  7-H ) :   0.9545 B(  6-O ,  8-H ) :   0.9232

MP2 TOTAL ENERGY:     -228.995187449 Eh
FINAL SINGLE POINT ENERGY      -228.995187449368

DIPOLE MOMENT
-------------
                                X             Y             Z
Electronic contribution:      0.11705       0.13883       0.21019
Nuclear contribution   :      0.73589      -0.01407      -0.66789
                        -----------------------------------------
Total Dipole Moment    :      0.85294       0.12476      -0.45770
                        -----------------------------------------
Magnitude (a.u.)       :      0.97599
Magnitude (Debye)      :      2.48076

Rotational constants in cm-1:     0.262409     0.056620     0.047011
Rotational constants in MHz :  7866.825959  1697.429368  1409.352699

                             ****ORCA TERMINATED NORMALLY****
TOTAL RUN TIME: 0 days 1 hours 6 minutes 14 seconds 286 msec
