                         Program Version 4.2.0 -  RELEASE  -
|  1> # 5h2o.temelso.etal.dset.2h2o-orca.engrad-mp2.augccpvtz-50.to.69
|  2> ! MP2 aug-cc-pVTZ EnGrad TightSCF FrozenCore
|  3>
|  4> %pal
|  5>     nprocs 12
|  6> end
|  7>
|  8> %maxcore 8000
|  9>
| 10> %scf
| 11>     ConvForced true
| 12> end
| 13>
| 14> *xyz 0 1
| 15> O   1.424227087   0.104842537  -0.100102532
| 16> H   0.456727087  -0.064657463  -0.088902532
| 17> H   1.628027087   0.259442537  -1.031202532
| 18> O  -1.351872913  -0.114957463   0.092997468
| 19> H  -1.570672913   0.743742537   0.510597468
| 20> H  -1.662672913  -0.777957463   0.722297468
| 21> *
| 22>
| 23>
| 24> $new_job
| 25>
| 26> # 5h2o.temelso.etal.dset.2h2o-orca.engrad-mp2.augccpvtz-50.to.69
| 27> ! MP2 aug-cc-pVTZ EnGrad TightSCF FrozenCore
| 28>
| 29> %pal
| 30>     nprocs 12
| 31> end
| 32>
| 33> %maxcore 8000
| 34>
| 35> %scf
| 36>     ConvForced true
| 37> end
| 38>
| 39> *xyz 0 1
| 40> O   1.452315922  -1.160451518  -0.720496597
| 41> H   0.484815922  -1.329951518  -0.709296597
| 42> H   1.656115922  -1.005851518  -1.651596597
| 43> O  -1.436584078   1.150448482   0.712703403
| 44> H  -1.916484078   1.379448482   1.518203403
| 45> H  -0.474184078   1.115148482   0.966403403
| 46> *
| 47>
| 48>
| 49> $new_job
| 50>
| 51> # 5h2o.temelso.etal.dset.2h2o-orca.engrad-mp2.augccpvtz-50.to.69
| 52> ! MP2 aug-cc-pVTZ EnGrad TightSCF FrozenCore
| 53>
| 54> %pal
| 55>     nprocs 12
| 56> end
| 57>
| 58> %maxcore 8000
| 59>
| 60> %scf
| 61>     ConvForced true
| 62> end
| 63>
| 64> *xyz 0 1
| 65> O   0.124299310  -1.157710743  -0.722429366
| 66> H  -0.843200690  -1.327210743  -0.711229366
| 67> H   0.328099310  -1.003110743  -1.653529366
| 68> O  -0.094200690   1.165789257   0.839970634
| 69> H  -0.109800690   1.852089257   0.148870634
| 70> H   0.147099310   0.349989257   0.349970634
| 71> *
| 72>
| 73>
| 74> $new_job
| 75>
| 76> # 5h2o.temelso.etal.dset.2h2o-orca.engrad-mp2.augccpvtz-50.to.69
| 77> ! MP2 aug-cc-pVTZ EnGrad TightSCF FrozenCore
| 78>
| 79> %pal
| 80>     nprocs 12
| 81> end
| 82>
| 83> %maxcore 8000
| 84>
| 85> %scf
| 86>     ConvForced true
| 87> end
| 88>
| 89> *xyz 0 1
| 90> O   0.763384665  -2.034099301   0.225456516
| 91> H  -0.204115335  -2.203599301   0.236656516
| 92> H   0.967184665  -1.879499301  -0.705643484
| 93> O  -0.671315335   2.004800699  -0.206843484
| 94> H  -0.785815335   2.952000699  -0.058443484
| 95> H  -1.438815335   1.596200699   0.231956516
| 96> *
| 97>
| 98>
| 99> $new_job
|100>
|101> # 5h2o.temelso.etal.dset.2h2o-orca.engrad-mp2.augccpvtz-50.to.69
|102> ! MP2 aug-cc-pVTZ EnGrad TightSCF FrozenCore
|103>
|104> %pal
|105>     nprocs 12
|106> end
|107>
|108> %maxcore 8000
|109>
|110> %scf
|111>     ConvForced true
|112> end
|113>
|114> *xyz 0 1
|115> O   0.057717514  -1.276242568  -0.678963294
|116> H  -0.161082486  -0.417542568  -0.261363294
|117> H  -0.253082486  -1.939242568  -0.049663294
|118> O  -0.055082486   1.254457432   0.561136706
|119> H  -0.534982486   1.483457432   1.366636706
|120> H   0.907317514   1.219157432   0.814836706
|121> *
|122>
|123>
|124> $new_job
|125>
|126> # 5h2o.temelso.etal.dset.2h2o-orca.engrad-mp2.augccpvtz-50.to.69
|127> ! MP2 aug-cc-pVTZ EnGrad TightSCF FrozenCore
|128>
|129> %pal
|130>     nprocs 12
|131> end
|132>
|133> %maxcore 8000
|134>
|135> %scf
|136>     ConvForced true
|137> end
|138>
|139> *xyz 0 1
|140> O  -1.270299098  -1.273501792  -0.680896064
|141> H  -1.489099098  -0.414801792  -0.263296064
|142> H  -1.581099098  -1.936501792  -0.051596064
|143> O   1.287300902   1.269798208   0.688403936
|144> H   1.271700902   1.956098208  -0.002696064
|145> H   1.528600902   0.453998208   0.198403936
|146> *
|147>
|148>
|149> $new_job
|150>
|151> # 5h2o.temelso.etal.dset.2h2o-orca.engrad-mp2.augccpvtz-50.to.69
|152> ! MP2 aug-cc-pVTZ EnGrad TightSCF FrozenCore
|153>
|154> %pal
|155>     nprocs 12
|156> end
|157>
|158> %maxcore 8000
|159>
|160> %scf
|161>     ConvForced true
|162> end
|163>
|164> *xyz 0 1
|165> O  -0.631213743  -2.149890350   0.266989818
|166> H  -0.850013743  -1.291190350   0.684589818
|167> H  -0.942013743  -2.812890350   0.896289818
|168> O   0.710186257   2.108809650  -0.358410182
|169> H   0.595686257   3.056009650  -0.210010182
|170> H  -0.057313743   1.700209650   0.080389818
|171> *
|172>
|173>
|174> $new_job
|175>
|176> # 5h2o.temelso.etal.dset.2h2o-orca.engrad-mp2.augccpvtz-50.to.69
|177> ! MP2 aug-cc-pVTZ EnGrad TightSCF FrozenCore
|178>
|179> %pal
|180>     nprocs 12
|181> end
|182>
|183> %maxcore 8000
|184>
|185> %scf
|186>     ConvForced true
|187> end
|188>
|189> *xyz 0 1
|190> O  -1.355010263  -0.008095847  -0.061190128
|191> H  -1.834910263   0.220904153   0.744309872
|192> H  -0.392610263  -0.043395847   0.192509872
|193> O   1.315389737   0.004504153   0.068009872
|194> H   1.299789737   0.690804153  -0.623090128
|195> H   1.556689737  -0.811295847  -0.421990128
|196> *
|197>
|198>
|199> $new_job
|200>
|201> # 5h2o.temelso.etal.dset.2h2o-orca.engrad-mp2.augccpvtz-50.to.69
|202> ! MP2 aug-cc-pVTZ EnGrad TightSCF FrozenCore
|203>
|204> %pal
|205>     nprocs 12
|206> end
|207>
|208> %maxcore 8000
|209>
|210> %scf
|211>     ConvForced true
|212> end
|213>
|214> *xyz 0 1
|215> O  -0.715924908  -0.884484405   0.886695754
|216> H  -1.195824908  -0.655484405   1.692195754
|217> H   0.246475092  -0.919784405   1.140395754
|218> O   0.738275092   0.843515595  -0.978804246
|219> H   0.623775092   1.790715595  -0.830404246
|220> H  -0.029224908   0.434915595  -0.540004246
|221> *
|222>
|223>
|224> $new_job
|225>
|226> # 5h2o.temelso.etal.dset.2h2o-orca.engrad-mp2.augccpvtz-50.to.69
|227> ! MP2 aug-cc-pVTZ EnGrad TightSCF FrozenCore
|228>
|229> %pal
|230>     nprocs 12
|231> end
|232>
|233> %maxcore 8000
|234>
|235> %scf
|236>     ConvForced true
|237> end
|238>
|239> *xyz 0 1
|240> O   0.626458480  -0.869143630   1.013962984
|241> H   0.610858480  -0.182843630   0.322862984
|242> H   0.867758480  -1.684943630   0.523962984
|243> O  -0.589741520   0.846256370  -0.980737016
|244> H  -0.704241520   1.793456370  -0.832337016
|245> H  -1.357241520   0.437656370  -0.541937016
|246> *
|247>
|248>
|249> $new_job
|250>
|251> # 5h2o.temelso.etal.dset.2h2o-orca.engrad-mp2.augccpvtz-50.to.69
|252> ! MP2 aug-cc-pVTZ EnGrad TightSCF FrozenCore
|253>
|254> %pal
|255>     nprocs 12
|256> end
|257>
|258> %maxcore 8000
|259>
|260> %scf
|261>     ConvForced true
|262> end
|263>
|264> *xyz 0 1
|265> O   1.440958323  -0.017814411   0.164174051
|266> H   0.490758323  -0.114414411  -0.058025949
|267> H   1.644458323  -0.787114411   0.709874051
|268> O  -1.358841677   0.040785589  -0.229025949
|269> H  -1.511641677   0.981785589  -0.003625949
|270> H  -1.927141677  -0.444914411   0.381274051
|271> *
|272>
|273>
|274> $new_job
|275>
|276> # 5h2o.temelso.etal.dset.2h2o-orca.engrad-mp2.augccpvtz-50.to.69
|277> ! MP2 aug-cc-pVTZ EnGrad TightSCF FrozenCore
|278>
|279> %pal
|280>     nprocs 12
|281> end
|282>
|283> %maxcore 8000
|284>
|285> %scf
|286>     ConvForced true
|287> end
|288>
|289> *xyz 0 1
|290> O   1.410259361  -1.352668819  -0.292092212
|291> H   0.460059361  -1.449268819  -0.514292212
|292> H   1.613759361  -2.121968819   0.253607788
|293> O  -1.387640639   1.387131181   0.212207788
|294> H  -1.948340639   1.748631181   0.909707788
|295> H  -0.484540639   1.275531181   0.619107788
|296> *
|297>
|298>
|299> $new_job
|300>
|301> # 5h2o.temelso.etal.dset.2h2o-orca.engrad-mp2.augccpvtz-50.to.69
|302> ! MP2 aug-cc-pVTZ EnGrad TightSCF FrozenCore
|303>
|304> %pal
|305>     nprocs 12
|306> end
|307>
|308> %maxcore 8000
|309>
|310> %scf
|311>     ConvForced true
|312> end
|313>
|314> *xyz 0 1
|315> O   0.114377130  -1.243049957  -0.544882710
|316> H  -0.835822870  -1.339649957  -0.767082710
|317> H   0.317877130  -2.012349957   0.000817290
|318> O  -0.097022870   1.305250043   0.587317290
|319> H   0.095977130   1.936950043  -0.129282710
|320> H   0.146477130   0.427650043   0.221917290
|321> *
|322>
|323>
|324> $new_job
|325>
|326> # 5h2o.temelso.etal.dset.2h2o-orca.engrad-mp2.augccpvtz-50.to.69
|327> ! MP2 aug-cc-pVTZ EnGrad TightSCF FrozenCore
|328>
|329> %pal
|330>     nprocs 12
|331> end
|332>
|333> %maxcore 8000
|334>
|335> %scf
|336>     ConvForced true
|337> end
|338>
|339> *xyz 0 1
|340> O   0.466181195  -2.173811690   0.489385839
|341> H  -0.484018805  -2.270411690   0.267185839
|342> H   0.669681195  -2.943111690   1.035085839
|343> O  -0.371918805   2.190388310  -0.533314161
|344> H  -0.439918805   3.126888310  -0.307614161
|345> H  -1.242118805   1.823488310  -0.297314161
|346> *
|347>
|348>
|349> $new_job
|350>
|351> # 5h2o.temelso.etal.dset.2h2o-orca.engrad-mp2.augccpvtz-50.to.69
|352> ! MP2 aug-cc-pVTZ EnGrad TightSCF FrozenCore
|353>
|354> %pal
|355>     nprocs 12
|356> end
|357>
|358> %maxcore 8000
|359>
|360> %scf
|361>     ConvForced true
|362> end
|363>
|364> *xyz 0 1
|365> O   0.009643260  -1.360326345  -0.503019827
|366> H  -0.143156740  -0.419326345  -0.277619827
|367> H  -0.558656740  -1.846026345   0.107280173
|368> O   0.011543260   1.320873655   0.394480173
|369> H  -0.549156740   1.682373655   1.091980173
|370> H   0.914643260   1.209273655   0.801380173
|371> *
|372>
|373>
|374> $new_job
|375>
|376> # 5h2o.temelso.etal.dset.2h2o-orca.engrad-mp2.augccpvtz-50.to.69
|377> ! MP2 aug-cc-pVTZ EnGrad TightSCF FrozenCore
|378>
|379> %pal
|380>     nprocs 12
|381> end
|382>
|383> %maxcore 8000
|384>
|385> %scf
|386>     ConvForced true
|387> end
|388>
|389> *xyz 0 1
|390> O  -1.286238971  -1.250707482  -0.755810325
|391> H  -1.439038971  -0.309707482  -0.530410325
|392> H  -1.854538971  -1.736407482  -0.145510325
|393> O   1.302161029   1.238992518   0.769589675
|394> H   1.495161029   1.870692518   0.052989675
|395> H   1.545661029   0.361392518   0.404189675
|396> *
|397>
|398>
|399> $new_job
|400>
|401> # 5h2o.temelso.etal.dset.2h2o-orca.engrad-mp2.augccpvtz-50.to.69
|402> ! MP2 aug-cc-pVTZ EnGrad TightSCF FrozenCore
|403>
|404> %pal
|405>     nprocs 12
|406> end
|407>
|408> %maxcore 8000
|409>
|410> %scf
|411>     ConvForced true
|412> end
|413>
|414> *xyz 0 1
|415> O  -0.934434906  -2.181469216   0.278458225
|416> H  -1.087234906  -1.240469216   0.503858225
|417> H  -1.502734906  -2.667169216   0.888758225
|418> O   1.027265094   2.124130784  -0.351041775
|419> H   0.959265094   3.060630784  -0.125341775
|420> H   0.157065094   1.757230784  -0.115041775
|421> *
|422>
|423>
|424> $new_job
|425>
|426> # 5h2o.temelso.etal.dset.2h2o-orca.engrad-mp2.augccpvtz-50.to.69
|427> ! MP2 aug-cc-pVTZ EnGrad TightSCF FrozenCore
|428>
|429> %pal
|430>     nprocs 12
|431> end
|432>
|433> %maxcore 8000
|434>
|435> %scf
|436>     ConvForced true
|437> end
|438>
|439> *xyz 0 1
|440> O  -1.315037933   0.095638109  -0.314576588
|441> H  -1.875737933   0.457138109   0.382923412
|442> H  -0.411937933  -0.015961891   0.092323412
|443> O   1.271462067  -0.095861891   0.313323412
|444> H   1.464462067   0.535838109  -0.403276588
|445> H   1.514962067  -0.973461891  -0.052076588
|446> *
|447>
|448>
|449> $new_job
|450>
|451> # 5h2o.temelso.etal.dset.2h2o-orca.engrad-mp2.augccpvtz-50.to.69
|452> ! MP2 aug-cc-pVTZ EnGrad TightSCF FrozenCore
|453>
|454> %pal
|455>     nprocs 12
|456> end
|457>
|458> %maxcore 8000
|459>
|460> %scf
|461>     ConvForced true
|462> end
|463>
|464> *xyz 0 1
|465> O  -0.963233868  -0.835123624   0.719691961
|466> H  -1.523933868  -0.473623624   1.417191961
|467> H  -0.060133868  -0.946723624   1.126591961
|468> O   0.996566132   0.789276376  -0.807308039
|469> H   0.928566132   1.725776376  -0.581608039
|470> H   0.126366132   0.422376376  -0.571308039
|471> *
|472>
|473>
|474> $new_job
|475>
|476> # 5h2o.temelso.etal.dset.2h2o-orca.engrad-mp2.augccpvtz-50.to.69
|477> ! MP2 aug-cc-pVTZ EnGrad TightSCF FrozenCore
|478>
|479> %pal
|480>     nprocs 12
|481> end
|482>
|483> %maxcore 8000
|484>
|485> %scf
|486>     ConvForced true
|487> end
|488>
|489> *xyz 0 1
|490> O   0.327383901  -0.917004762   1.094801463
|491> H   0.520383901  -0.285304762   0.378201463
|492> H   0.570883901  -1.794604762   0.729401463
|493> O  -0.299316099   0.898895238  -1.060098537
|494> H  -0.367316099   1.835395238  -0.834398537
|495> H  -1.169516099   0.531995238  -0.824098537
|496> *
|497>
|498>                          ****END OF INPUT****
 Total Charge           Charge          ....    0
 Multiplicity           Mult            ....    1
 Number of Electrons    NEL             ....   20
MP2 TOTAL ENERGY:     -152.665280197 Eh
FINAL SINGLE POINT ENERGY      -152.665280196689
MP2 TOTAL ENERGY:     -152.659002027 Eh
FINAL SINGLE POINT ENERGY      -152.659002027403
MP2 TOTAL ENERGY:     -152.663628757 Eh
FINAL SINGLE POINT ENERGY      -152.663628757203
MP2 TOTAL ENERGY:     -152.657195423 Eh
FINAL SINGLE POINT ENERGY      -152.657195423304
MP2 TOTAL ENERGY:     -152.663678145 Eh
FINAL SINGLE POINT ENERGY      -152.663678145326
MP2 TOTAL ENERGY:     -152.659780761 Eh
FINAL SINGLE POINT ENERGY      -152.659780761491
FINAL SINGLE POINT ENERGY      -152.656195015299
FINAL SINGLE POINT ENERGY      -152.663278938285
FINAL SINGLE POINT ENERGY      -152.663583466018
FINAL SINGLE POINT ENERGY      -152.664441106633
FINAL SINGLE POINT ENERGY      -152.664550680792
FINAL SINGLE POINT ENERGY      -152.658789734496
FINAL SINGLE POINT ENERGY      -152.664864206818
FINAL SINGLE POINT ENERGY      -152.656454171890
MP2 TOTAL ENERGY:     -152.663590860 Eh
FINAL SINGLE POINT ENERGY      -152.663590860158
MP2 TOTAL ENERGY:     -152.659612030 Eh
FINAL SINGLE POINT ENERGY      -152.659612029979
MP2 TOTAL ENERGY:     -152.656385927 Eh
FINAL SINGLE POINT ENERGY      -152.656385927074
MP2 TOTAL ENERGY:     -152.663057642 Eh
FINAL SINGLE POINT ENERGY      -152.663057641555
MP2 TOTAL ENERGY:     -152.663302669 Eh
FINAL SINGLE POINT ENERGY      -152.663302668744

CARTESIAN COORDINATES (ANGSTROEM)
---------------------------------
  O      0.327384   -0.917005    1.094801
  H      0.520384   -0.285305    0.378201
  H      0.570884   -1.794605    0.729401
  O     -0.299316    0.898895   -1.060099
  H     -0.367316    1.835395   -0.834399
  H     -1.169516    0.531995   -0.824099

 Multiplicity           Mult            ....    1
 Number of Electrons    NEL             ....   20
 Basis Dimension        Dim             ....  184

ORBITAL ENERGIES
----------------

  NO   OCC          E(Eh)            E(eV)
   0   2.0000     -20.586731      -560.1934
   1   2.0000     -20.548479      -559.1525
   2   2.0000      -1.368155       -37.2294
   3   2.0000      -1.323421       -36.0121
   4   2.0000      -0.730572       -19.8799
   5   2.0000      -0.691476       -18.8160
   6   2.0000      -0.605676       -16.4813
   7   2.0000      -0.564017       -15.3477
   8   2.0000      -0.526797       -14.3349
   9   2.0000      -0.488469       -13.2919
  10   0.0000       0.025782         0.7016
  11   0.0000       0.042676         1.1613
  12   0.0000       0.050762         1.3813
  13   0.0000       0.072891         1.9835
  14   0.0000       0.118479         3.2240

MULLIKEN ATOMIC CHARGES
-----------------------
   0 O :   -0.493422
   1 H :    0.276044
   2 H :    0.213067
   3 O :   -0.453471
   4 H :    0.214391
   5 H :    0.243391
Sum of atomic charges:    0.0000000

LOEWDIN ATOMIC CHARGES
----------------------
   0 O :    1.003674
   1 H :   -0.634558
   2 H :   -0.482204
   3 O :    1.054260
   4 H :   -0.476125
   5 H :   -0.465047

  Mayer bond orders larger than 0.100000
B(  0-O ,  1-H ) :   0.8879 B(  0-O ,  2-H ) :   0.9610 B(  3-O ,  4-H ) :   0.9558
B(  3-O ,  5-H ) :   0.9177

MP2 TOTAL ENERGY:     -152.664466073 Eh
FINAL SINGLE POINT ENERGY      -152.664466073029

DIPOLE MOMENT
-------------
                                X             Y             Z
Electronic contribution:      0.05643       0.04992       0.02854
Nuclear contribution   :     -0.41760       0.26944      -0.51631
                        -----------------------------------------
Total Dipole Moment    :     -0.36116       0.31935      -0.48778
                        -----------------------------------------
Magnitude (a.u.)       :      0.68582
Magnitude (Debye)      :      1.74322

Rotational constants in cm-1:     6.730048     0.220635     0.219372
Rotational constants in MHz : 201761.775187  6614.471471  6576.611742

                             ****ORCA TERMINATED NORMALLY****
TOTAL RUN TIME: 0 days 0 hours 7 minutes 34 seconds 62 msec
