                         Program Version 4.2.0 -  RELEASE  -
|  1> # 4mecn.malloum.etal.dset.3mecn.dset-orca.engrad-mp2.def2tzvp
|  2> ! MP2 def2-TZVP EnGrad TightSCF FrozenCore
|  3>
|  4> %pal
|  5>     nprocs 12
|  6> end
|  7>
|  8> %maxcore 8000
|  9>
| 10> %scf
| 11>     ConvForced true
| 12> end
| 13>
| 14> *xyz 0 1
| 15> C  -1.206721253  -2.695609472  -0.456189601
| 16> H  -1.165713253  -2.603454472   0.633113399
| 17> H  -0.404602253  -3.362849472  -0.779715601
| 18> H  -2.176579253  -3.100045472  -0.757245601
| 19> C  -1.012301253  -1.374935472  -1.047697601
| 20> N  -0.873378253  -0.321039472  -1.517945601
| 21> C   2.245935747   0.368754528  -1.890368601
| 22> H   1.443815747   0.692277528  -2.557608601
| 23> H   2.204931747  -0.720549472  -1.798212601
| 24> H   3.215792747   0.669812528  -2.294804601
| 25> C   2.051514747   0.960262528  -0.569695601
| 26> N   1.912588747   1.430510528   0.484200399
| 27> C  -1.206727253   1.802925528   1.173993399
| 28> H  -1.165721253   1.710769528   0.084689399
| 29> H  -0.404610253   2.470168528   1.497518399
| 30> H  -2.176586253   2.207357528   1.475050399
| 31> C  -1.012302253   0.482252528   1.765501399
| 32> N  -0.873374253  -0.571642472   2.235749399
| 33> *
| 34>
| 35>
| 36> $new_job
| 37>
| 38> # 4mecn.malloum.etal.dset.3mecn.dset-orca.engrad-mp2.def2tzvp
| 39> ! MP2 def2-TZVP EnGrad TightSCF FrozenCore
| 40>
| 41> %pal
| 42>     nprocs 12
| 43> end
| 44>
| 45> %maxcore 8000
| 46>
| 47> %scf
| 48>     ConvForced true
| 49> end
| 50>
| 51> *xyz 0 1
| 52> C  -2.245935862  -1.890369918  -0.368749382
| 53> H  -2.204927862  -1.798214918   0.720553618
| 54> H  -1.443816862  -2.557609918  -0.692275382
| 55> H  -3.215793862  -2.294805918  -0.669805382
| 56> C  -2.051515862  -0.569695918  -0.960257382
| 57> N  -1.912592862   0.484200082  -1.430505382
| 58> C   1.206721138   1.173994082  -1.802928382
| 59> H   0.404601138   1.497517082  -2.470168382
| 60> H   1.165717138   0.084690082  -1.710772382
| 61> H   2.176578138   1.475052082  -2.207364382
| 62> C   1.012300138   1.765502082  -0.482255382
| 63> N   0.873374138   2.235750082   0.571640618
| 64> C   1.206729138  -0.456188918   2.695605618
| 65> H   2.176589138  -0.757242918   3.100038618
| 66> H   0.404613138  -0.779716918   3.362848618
| 67> H   1.165719138   0.633114082   2.603451618
| 68> C   1.012306138  -1.047697918   1.374933618
| 69> N   0.873379138  -1.517945918   0.321037618
| 70> *
| 71>
| 72>
| 73> $new_job
| 74>
| 75> # 4mecn.malloum.etal.dset.3mecn.dset-orca.engrad-mp2.def2tzvp
| 76> ! MP2 def2-TZVP EnGrad TightSCF FrozenCore
| 77>
| 78> %pal
| 79>     nprocs 12
| 80> end
| 81>
| 82> %maxcore 8000
| 83>
| 84> %scf
| 85>     ConvForced true
| 86> end
| 87>
| 88> *xyz 0 1
| 89> C  -1.206723391  -1.802929251  -1.173991277
| 90> H  -1.165715391  -1.710774251  -0.084688277
| 91> H  -0.404604391  -2.470169251  -1.497517277
| 92> H  -2.176581391  -2.207365251  -1.475047277
| 93> C  -1.012303391  -0.482255251  -1.765499277
| 94> N  -0.873380391   0.571640749  -2.235747277
| 95> C  -1.206729391   2.695605749   0.456191723
| 96> H  -1.165723391   2.603449749  -0.633112277
| 97> H  -0.404612391   3.362848749   0.779716723
| 98> H  -2.176588391   3.100037749   0.757248723
| 99> C  -1.012304391   1.374932749   1.047699723
|100> N  -0.873376391   0.321037749   1.517947723
|101> C   2.245941609  -0.368748251   1.890363723
|102> H   3.215801609  -0.669802251   2.294796723
|103> H   1.443825609  -0.692276251   2.557606723
|104> H   2.204931609   0.720554749   1.798209723
|105> C   2.051518609  -0.960257251   0.569691723
|106> N   1.912591609  -1.430505251  -0.484204277
|107> *
|108>
|109>
|110> $new_job
|111>
|112> # 4mecn.malloum.etal.dset.3mecn.dset-orca.engrad-mp2.def2tzvp
|113> ! MP2 def2-TZVP EnGrad TightSCF FrozenCore
|114>
|115> %pal
|116>     nprocs 12
|117> end
|118>
|119> %maxcore 8000
|120>
|121> %scf
|122>     ConvForced true
|123> end
|124>
|125> *xyz 0 1
|126> C   1.206721554   0.456192398  -2.695608399
|127> H   0.404601554   0.779715398  -3.362848399
|128> H   1.165717554  -0.633111602  -2.603452399
|129> H   2.176578554   0.757250398  -3.100044399
|130> C   1.012300554   1.047700398  -1.374935399
|131> N   0.873374554   1.517948398  -0.321039399
|132> C  -2.245941446   1.890363398   0.368753601
|133> H  -2.204935446   1.798207398  -0.720550399
|134> H  -1.443824446   2.557606398   0.692278601
|135> H  -3.215800446   2.294795398   0.669810601
|136> C  -2.051516446   0.569690398   0.960261601
|137> N  -1.912588446  -0.484204602   1.430509601
|138> C   1.206729554  -1.173990602   1.802925601
|139> H   2.176589554  -1.475044602   2.207358601
|140> H   0.404613554  -1.497518602   2.470168601
|141> H   1.165719554  -0.084687602   1.710771601
|142> C   1.012306554  -1.765499602   0.482253601
|143> N   0.873379554  -2.235747602  -0.571642399
|144> *
|145>
|146>
|147> $new_job
|148>
|149> # 4mecn.malloum.etal.dset.3mecn.dset-orca.engrad-mp2.def2tzvp
|150> ! MP2 def2-TZVP EnGrad TightSCF FrozenCore
|151>
|152> %pal
|153>     nprocs 12
|154> end
|155>
|156> %maxcore 8000
|157>
|158> %scf
|159>     ConvForced true
|160> end
|161>
|162> *xyz 0 1
|163> C   2.664895016  -0.132947811  -1.656101505
|164> H   2.555582016  -1.212466811  -1.527108505
|165> H   3.570760016   0.084665189  -2.227514505
|166> H   1.788380016   0.244643189  -2.190792505
|167> C   2.729585016   0.513229189  -0.348439505
|168> N   2.769474016   1.030493189   0.691891495
|169> C  -2.664894984  -0.132949811  -1.656100505
|170> H  -2.555564984  -1.212465811  -1.527107505
|171> H  -1.788390984   0.244654189  -2.190798505
|172> H  -3.570767984   0.084649189  -2.227506505
|173> C  -2.729584984   0.513228189  -0.348439505
|174> N  -2.769474984   1.030495189   0.691890495
|175> C   0.000000016  -0.352972811   2.174874495
|176> H   0.896569016   0.263848189   2.291292495
|177> H   0.000000016  -1.136893811   2.936702495
|178> H  -0.896568984   0.263847189   2.291292495
|179> C   0.000000016  -0.951113811   0.842800495
|180> N   0.000001016  -1.424017811  -0.219159505
|181> *
|182>
|183>
|184> $new_job
|185>
|186> # 4mecn.malloum.etal.dset.3mecn.dset-orca.engrad-mp2.def2tzvp
|187> ! MP2 def2-TZVP EnGrad TightSCF FrozenCore
|188>
|189> %pal
|190>     nprocs 12
|191> end
|192>
|193> %maxcore 8000
|194>
|195> %scf
|196>     ConvForced true
|197> end
|198>
|199> *xyz 0 1
|200> C   2.664895122  -1.280533798  -1.170585189
|201> H   2.555582122  -2.360052798  -1.041592189
|202> H   3.570760122  -1.062920798  -1.741998189
|203> H   1.788380122  -0.902942798  -1.705276189
|204> C   2.729585122  -0.634356798   0.137076811
|205> N   2.769474122  -0.117092798   1.177407811
|206> C  -2.664894878  -1.280535798  -1.170584189
|207> H  -2.555564878  -2.360051798  -1.041591189
|208> H  -1.788390878  -0.902931798  -1.705282189
|209> H  -3.570767878  -1.062936798  -1.741990189
|210> C  -2.729584878  -0.634357798   0.137076811
|211> N  -2.769474878  -0.117090798   1.177406811
|212> C   0.000000122   1.948491202   1.200922811
|213> H   0.896604122   1.628778202   1.740499811
|214> H  -0.896601878   1.628776202   1.740500811
|215> H  -0.000000878   3.038231202   1.115393811
|216> C   0.000000122   1.344296202  -0.128413189
|217> N   0.000000122   0.864154202  -1.186829189
|218> *
|219>
|220>
|221> $new_job
|222>
|223> # 4mecn.malloum.etal.dset.3mecn.dset-orca.engrad-mp2.def2tzvp
|224> ! MP2 def2-TZVP EnGrad TightSCF FrozenCore
|225>
|226> %pal
|227>     nprocs 12
|228> end
|229>
|230> %maxcore 8000
|231>
|232> %scf
|233>     ConvForced true
|234> end
|235>
|236> *xyz 0 1
|237> C   1.759047748  -0.839343967  -1.666937313
|238> H   1.649734748  -1.918862967  -1.537944313
|239> H   2.664912748  -0.621730967  -2.238350313
|240> H   0.882532748  -0.461752967  -2.201628313
|241> C   1.823737748  -0.193166967  -0.359275313
|242> N   1.863626748   0.324097033   0.681055687
|243> C  -0.905847252  -1.059368967   2.164038687
|244> H  -0.009278252  -0.442547967   2.280456687
|245> H  -0.905847252  -1.843289967   2.925866687
|246> H  -1.802416252  -0.442548967   2.280456687
|247> C  -0.905847252  -1.657509967   0.831964687
|248> N  -0.905846252  -2.130413967  -0.229995313
|249> C  -0.905847252   2.389681033   0.704570687
|250> H  -0.009243252   2.069968033   1.244147687
|251> H  -1.802449252   2.069966033   1.244148687
|252> H  -0.905848252   3.479421033   0.619041687
|253> C  -0.905847252   1.785486033  -0.624765313
|254> N  -0.905847252   1.305344033  -1.683181313
|255> *
|256>
|257>
|258> $new_job
|259>
|260> # 4mecn.malloum.etal.dset.3mecn.dset-orca.engrad-mp2.def2tzvp
|261> ! MP2 def2-TZVP EnGrad TightSCF FrozenCore
|262>
|263> %pal
|264>     nprocs 12
|265> end
|266>
|267> %maxcore 8000
|268>
|269> %scf
|270>     ConvForced true
|271> end
|272>
|273> *xyz 0 1
|274> C  -1.759047862  -0.839345870  -1.666936322
|275> H  -1.649717862  -1.918861870  -1.537943322
|276> H  -0.882543862  -0.461741870  -2.201634322
|277> H  -2.664920862  -0.621746870  -2.238342322
|278> C  -1.823737862  -0.193167870  -0.359275322
|279> N  -1.863627862   0.324099130   0.681054678
|280> C   0.905847138  -1.059368870   2.164038678
|281> H   1.802416138  -0.442547870   2.280456678
|282> H   0.905847138  -1.843289870   2.925866678
|283> H   0.009278138  -0.442548870   2.280456678
|284> C   0.905847138  -1.657509870   0.831964678
|285> N   0.905848138  -2.130413870  -0.229995322
|286> C   0.905847138   2.389681130   0.704570678
|287> H   1.802451138   2.069968130   1.244147678
|288> H   0.009245138   2.069966130   1.244148678
|289> H   0.905846138   3.479421130   0.619041678
|290> C   0.905847138   1.785486130  -0.624765322
|291> N   0.905847138   1.305344130  -1.683181322
|292> *
|293>
|294>
|295> $new_job
|296>
|297> # 4mecn.malloum.etal.dset.3mecn.dset-orca.engrad-mp2.def2tzvp
|298> ! MP2 def2-TZVP EnGrad TightSCF FrozenCore
|299>
|300> %pal
|301>     nprocs 12
|302> end
|303>
|304> %maxcore 8000
|305>
|306> %scf
|307>     ConvForced true
|308> end
|309>
|310> *xyz 0 1
|311> C  -2.689557638  -0.621257032  -1.579858157
|312> H  -3.574074638  -0.148891032  -2.014573157
|313> H  -2.630468638  -1.665211032  -1.897034157
|314> H  -1.787450638  -0.102548032  -1.917475157
|315> C  -2.750952638  -0.555109032  -0.122608157
|316> N  -2.788622638  -0.501129032   1.038035843
|317> C   2.633642362  -0.626131032  -1.579860157
|318> H   3.518146362  -1.098526032  -2.014569157
|319> H   2.574575362   0.417817968  -1.897056157
|320> H   1.731523362  -1.144826032  -1.917464157
|321> C   2.695040362  -0.692252032  -0.122609157
|322> N   2.732713362  -0.746208032   1.038035843
|323> C   0.045297362   1.250285968   1.869230843
|324> H   0.901842362   0.674550968   2.233664843
|325> H  -0.886938638   0.799889968   2.223288843
|326> H   0.116170362   2.275504968   2.241765843
|327> C   0.055295362   1.248062968   0.409080843
|328> N   0.068181362   1.243691968  -0.753205157
|329> *
|330>
|331>
|332> $new_job
|333>
|334> # 4mecn.malloum.etal.dset.3mecn.dset-orca.engrad-mp2.def2tzvp
|335> ! MP2 def2-TZVP EnGrad TightSCF FrozenCore
|336>
|337> %pal
|338>     nprocs 12
|339> end
|340>
|341> %maxcore 8000
|342>
|343> %scf
|344>     ConvForced true
|345> end
|346>
|347> *xyz 0 1
|348> C  -2.633644629   0.626102714  -1.579868019
|349> H  -3.518161629   1.098468714  -2.014583019
|350> H  -2.574555629  -0.417851286  -1.897044019
|351> H  -1.731537629   1.144811714  -1.917485019
|352> C  -2.695039629   0.692250714  -0.122618019
|353> N  -2.732709629   0.746230714   1.038025981
|354> C   2.689555371   0.621228714  -1.579870019
|355> H   3.574059371   0.148833714  -2.014579019
|356> H   2.630488371   1.665177714  -1.897066019
|357> H   1.787436371   0.102533714  -1.917474019
|358> C   2.750953371   0.555107714  -0.122619019
|359> N   2.788626371   0.501151714   1.038025981
|360> C  -0.045295629  -1.250257286   1.869249981
|361> H  -0.901837629  -0.674513286   2.233674981
|362> H   0.886943371  -0.799861286   2.223297981
|363> H  -0.116173629  -2.275470286   2.241801981
|364> C  -0.055296629  -1.248058286   0.409100981
|365> N  -0.068185629  -1.243707286  -0.753185019
|366> *
|367>
|368>
|369> $new_job
|370>
|371> # 4mecn.malloum.etal.dset.3mecn.dset-orca.engrad-mp2.def2tzvp
|372> ! MP2 def2-TZVP EnGrad TightSCF FrozenCore
|373>
|374> %pal
|375>     nprocs 12
|376> end
|377>
|378> %maxcore 8000
|379>
|380> %scf
|381>     ConvForced true
|382> end
|383>
|384> *xyz 0 1
|385> C  -1.757773175  -0.018068248  -1.866879425
|386> H  -2.642290175   0.454297752  -2.301594425
|387> H  -1.698684175  -1.062022248  -2.184055425
|388> H  -0.855666175   0.500640752  -2.204496425
|389> C  -1.819168175   0.048079752  -0.409629425
|390> N  -1.856838175   0.102059752   0.751014575
|391> C   0.977081825   1.853474752   1.582209575
|392> H   1.833626825   1.277739752   1.946643575
|393> H   0.044845825   1.403078752   1.936267575
|394> H   1.047954825   2.878693752   1.954744575
|395> C   0.987079825   1.851251752   0.122059575
|396> N   0.999965825   1.846880752  -1.040226425
|397> C   0.830575825  -1.894428248   1.582238575
|398> H  -0.025966175  -1.318684248   1.946663575
|399> H   1.762814825  -1.444032248   1.936286575
|400> H   0.759697825  -2.919641248   1.954790575
|487> end
|488>
|489> %maxcore 8000
|490>
|491> %scf
|492>     ConvForced true
|493> end
|494>
|495> *xyz 0 1
|496> C   4.450573649  -1.539367904   0.112127430
|497> H   4.800056649  -2.041646904   1.017726430
|498> H   5.166517649  -1.719388904  -0.693812570
|499> H   3.474466649  -1.942730904  -0.172707570
|500> C   4.320151649  -0.104722904   0.354449430
|501> N   4.204935649   1.035560096   0.544192430
|502> C   0.926446649   1.683079096  -0.173109570
|503> H   0.844940649   2.157276096  -1.154582570
|504> H   1.818770649   2.060771096   0.333853430
|505> H   0.029276649   1.909350096   0.409681430
|506> C   1.041993649   0.236679096  -0.332536570
|507> N   1.135200649  -0.915931904  -0.453065570
|508> C  -5.479939351   1.139797096   0.200489430
|509> H  -5.829424351   1.642074096  -0.705109570
|510> H  -4.503833351   1.543164096   0.485325430
|511> H  -6.195883351   1.319816096   1.006429430
|512> C  -5.349512351  -0.294847904  -0.041830570
|513> N  -5.234291351  -1.435129904  -0.231573570
|514> *
|515>
|516>
|517> $new_job
|518>
|519> # 4mecn.malloum.etal.dset.3mecn.dset-orca.engrad-mp2.def2tzvp
|520> ! MP2 def2-TZVP EnGrad TightSCF FrozenCore
|521>
|522> %pal
|523>     nprocs 12
|524> end
|525>
|526> %maxcore 8000
|527>
|528> %scf
|529>     ConvForced true
|530> end
|531>
|532> *xyz 0 1
|533> C   5.479934328  -1.139799316  -0.200491016
|534> H   5.829417328  -1.642078316   0.705107984
|535> H   6.195878328  -1.319820316  -1.006431016
|536> H   4.503827328  -1.543162316  -0.485326016
|537> C   5.349512328   0.294845684   0.041830984
|538> N   5.234296328   1.435128684   0.231573984
|539> C  -0.926444672  -1.683075316   0.173112984
|540> H  -0.844944672  -2.157270316   1.154587984
|541> H  -0.029269672  -1.909347316  -0.409671016
|542> H  -1.818764672  -2.060769316  -0.333855016
|543> C  -1.041993672  -0.236675316   0.332536984
|544> N  -1.135201672   0.915935684   0.453062984
|545> C  -4.450578672   1.539365684  -0.112129016
|546> H  -4.800063672   2.041642684  -1.017728016
|547> H  -3.474472672   1.942732684   0.172706984
|548> H  -5.166522672   1.719384684   0.693810984
|549> C  -4.320151672   0.104720684  -0.354449016
|550> N  -4.204930672  -1.035561316  -0.544192016
|551> *
|552>
|553>
|554> $new_job
|555>
|556> # 4mecn.malloum.etal.dset.3mecn.dset-orca.engrad-mp2.def2tzvp
|557> ! MP2 def2-TZVP EnGrad TightSCF FrozenCore
|558>
|559> %pal
|560>     nprocs 12
|561> end
|562>
|563> %maxcore 8000
|564>
|565> %scf
|566>     ConvForced true
|567> end
|568>
|569> *xyz 0 1
|570> C   3.056285398   1.860224198  -0.272888076
|571> H   2.974779398   2.334421198  -1.254361076
|572> H   3.948609398   2.237916198   0.234074924
|573> H   2.159115398   2.086495198   0.309902924
|574> C   3.171832398   0.413824198  -0.432315076
|575> N   3.265039398  -0.738786802  -0.552844076
|576> C   0.174033398  -1.905498802   0.385952924
|577> H   0.255533398  -2.379693802   1.367427924
|578> H   1.071208398  -2.131770802  -0.196831076
|579> H  -0.718286602  -2.283192802  -0.121015076
|580> C   0.058484398  -0.459098802   0.545376924
|581> N  -0.034723602   0.693512198   0.665902924
|582> C  -3.350100602   1.316942198   0.100710924
|583> H  -3.699585602   1.819219198  -0.804888076
|584> H  -2.373994602   1.720309198   0.385546924
|585> H  -4.066044602   1.496961198   0.906650924
|586> C  -3.219673602  -0.117702802  -0.141609076
|587> N  -3.104452602  -1.257984802  -0.331352076
|588> *
|589>
|590>
|591> $new_job
|592>
|593> # 4mecn.malloum.etal.dset.3mecn.dset-orca.engrad-mp2.def2tzvp
|594> ! MP2 def2-TZVP EnGrad TightSCF FrozenCore
|595>
|596> %pal
|597>     nprocs 12
|598> end
|599>
|600> %maxcore 8000
|601>
|602> %scf
|603>     ConvForced true
|604> end
|605>
|606> *xyz 0 1
|607> C  -0.462368612  -2.940121353  -1.570848453
|608> H  -1.466289612  -2.977719353  -2.001401453
|609> H   0.093951388  -3.825274353  -1.889669453
|610> H   0.051639388  -2.041882353  -1.924959453
|611> C  -0.543892612  -2.898599353  -0.112833453
|612> N  -0.603963612  -2.857468353   1.046344547
|613> C   1.140093388   0.016519647   1.855737547
|614> H   2.173638388  -0.022790353   2.211503547
|615> H   0.589036388  -0.857971353   2.213568547
|616> H   0.657829388   0.931578647   2.211464547
|617> C   1.138907388   0.014812647   0.397044547
|618> N   1.137469388   0.013477647  -0.766940453
|619> C  -0.684085612   2.834429647  -1.573641453
|620> H  -1.729839612   2.767380647  -1.884369453
|621> H  -0.143689612   1.951207647  -1.926254453
|622> H  -0.240064612   3.731341647  -2.012997453
|623> C  -0.597959612   2.895182647  -0.116565453
|624> N  -0.524534612   2.935440647   1.041873547
|625> *
|626>
|627>
|628> $new_job
|629>
|630> # 4mecn.malloum.etal.dset.3mecn.dset-orca.engrad-mp2.def2tzvp
|631> ! MP2 def2-TZVP EnGrad TightSCF FrozenCore
|632>
|633> %pal
|634>     nprocs 12
|635> end
|636>
|637> %maxcore 8000
|638>
|639> %scf
|640>     ConvForced true
|641> end
|642>
|643> *xyz 0 1
|644> C  -2.163572476  -1.996574256  -1.568600988
|645> H  -3.167493476  -2.034172256  -1.999153988
|646> H  -1.607252476  -2.881727256  -1.887421988
|647> H  -1.649564476  -1.098335256  -1.922711988
|648> C  -2.245096476  -1.955052256  -0.110585988
|649> N  -2.305167476  -1.913921256   1.048592012
|650> C  -0.561110476   0.960066744   1.857985012
|651> H   0.472434524   0.920756744   2.213751012
|652> H  -1.112167476   0.085575744   2.215816012
|653> H  -1.043374476   1.875125744   2.213712012
|654> C  -0.562296476   0.958359744   0.399292012
|655> N  -0.563734476   0.957024744  -0.764692988
|656> C   2.792431524   1.081576744  -1.578802988
|657> H   3.336412524   0.238233744  -2.011807988
|658> H   3.269102524   2.012359744  -1.896707988
|659> H   1.757128524   1.065758744  -1.931274988
|660> C   2.800736524   0.987627744  -0.120975988
|661> N   2.798154524   0.912815744   1.038071012
|662> *
|663>
|664>
|665> $new_job
|666>
|667> # 4mecn.malloum.etal.dset.3mecn.dset-orca.engrad-mp2.def2tzvp
|668> ! MP2 def2-TZVP EnGrad TightSCF FrozenCore
|669>
|670> %pal
|671>     nprocs 12
|672> end
|673>
|674> %maxcore 8000
|675>
|676> %scf
|677>     ConvForced true
|678> end
|679>
|680> *xyz 0 1
|681> C  -1.581969154  -2.953356517  -1.287827496
|682> H  -2.585890154  -2.990954517  -1.718380496
|683> H  -1.025649154  -3.838509517  -1.606648496
|684> H  -1.067961154  -2.055117517  -1.641938496
|685> C  -1.663493154  -2.911834517   0.170187504
|686> N  -1.723564154  -2.870703517   1.329365504
|687> C  -1.803686154   2.821194483  -1.290620496
|688> H  -2.849440154   2.754145483  -1.601348496
|689> H  -1.263290154   1.937972483  -1.643233496
|690> H  -1.359665154   3.718106483  -1.729976496
|691> C  -1.717560154   2.881947483   0.166455504
|692> N  -1.644135154   2.922205483   1.324894504
|693> C   3.374034846   0.124794483  -1.298029496
|694> H   3.918015846  -0.718548517  -1.731034496
|695> H   3.850705846   1.055577483  -1.615934496
|696> H   2.338731846   0.108976483  -1.650501496
|697> C   3.382339846   0.030845483   0.159797504
|698> N   3.379757846  -0.043966517   1.318844504
|699> *
|700>
|701>
|702> $new_job
|703>
|704> # 4mecn.malloum.etal.dset.3mecn.dset-orca.engrad-mp2.def2tzvp
|705> ! MP2 def2-TZVP EnGrad TightSCF FrozenCore
|706>
|707> %pal
|708>     nprocs 12
|709> end
|710>
|711> %maxcore 8000
|712>
|713> %scf
|714>     ConvForced true
|715> end
|716>
|717> *xyz 0 1
|718> C  -0.536760397  -0.968510938   1.859191987
|719> H   0.496784603  -1.007820938   2.214957987
|720> H  -1.087817397  -1.843001938   2.217022987
|721> H  -1.019024397  -0.053451938   2.214918987
|722> C  -0.537946397  -0.970217938   0.400498987
|723> N  -0.539384397  -0.971552938  -0.763486013
|724> C  -2.360939397   1.849399062  -1.570187013
|725> H  -3.406693397   1.782350062  -1.880915013
|726> H  -1.820543397   0.966177062  -1.922800013
|727> H  -1.916918397   2.746311062  -2.009543013
|728> C  -2.274813397   1.910152062  -0.113111013
|729> N  -2.201388397   1.950410062   1.045327987
|730> C   2.816781603  -0.847000938  -1.577596013
|731> H   3.360762603  -1.690343938  -2.010601013
|732> H   3.293452603   0.083782062  -1.895501013
|733> H   1.781478603  -0.862818938  -1.930068013
|734> C   2.825086603  -0.940949938  -0.119769013
|735> N   2.822504603  -1.015761938   1.039277987
|736> *
|737>
|738>
|739> $new_job
|740>
|741> # 4mecn.malloum.etal.dset.3mecn.dset-orca.engrad-mp2.def2tzvp
|742> ! MP2 def2-TZVP EnGrad TightSCF FrozenCore
|743>
|744> %pal
|745>     nprocs 12
|746> end
|747>
|748> %maxcore 8000
|749>
|750> %scf
|751>     ConvForced true
|752> end
|753>
|754> *xyz 0 1
|755> C  -3.964183282   0.876248989   0.004025711
|756> H  -4.511309282   1.205293989  -0.883305289
|757> H  -2.969693282   1.333596989   0.001139711
|758> H  -4.505498282   1.203921989   0.895420711
|759> C  -3.850171282  -0.579520011   0.002537711
|760> N  -3.760111282  -1.737348011   0.001404711
|761> C   1.814567718   2.501574989  -0.006945289
|762> H   2.271943718   1.507098989  -0.003976289
|763> H   2.143702718   3.048832989   0.880271711
|764> H   2.142124718   3.042773989  -0.898453289
|765> C   0.358802718   2.387527989  -0.005274289
|766> N  -0.799022282   2.297431989  -0.003995289
|767> C   3.439920718  -3.277112011   0.004171711
|768> H   3.987169718  -3.606241011  -0.883052289
|769> H   2.445420718  -3.734436011   0.001178711
|770> H   3.981094718  -3.604730011   0.895672711
|771> C   3.325948718  -1.821340011   0.002555711
|772> N   3.235922718  -0.663509011   0.001319711
|773> *
|774>
|775>
|776> $new_job
|777>
|778> # 4mecn.malloum.etal.dset.3mecn.dset-orca.engrad-mp2.def2tzvp
|779> ! MP2 def2-TZVP EnGrad TightSCF FrozenCore
|780>
|781> %pal
|782>     nprocs 12
|783> end
|784>
|785> %maxcore 8000
|786>
|787> %scf
|788>     ConvForced true
|789> end
|790>
|791> *xyz 0 1
|792> C  -2.501606680   1.814581306   0.006764283
|793> H  -3.048732680   2.143626306  -0.880566717
|794> H  -1.507116680   2.271929306   0.003878283
|795> H  -3.042921680   2.142254306   0.898159283
|796> C  -2.387594680   0.358812306   0.005276283
|797> N  -2.297534680  -0.799015694   0.004143283
|798> C   3.277144320   3.439907306  -0.004206717
|799> H   3.734520320   2.445431306  -0.001237717
|800> H   3.606279320   3.987165306   0.883010283
|801> H   3.604701320   3.981106306  -0.895714717
|802> C   1.821379320   3.325860306  -0.002535717
|803> N   0.663554320   3.235764306  -0.001256717
|804> C  -0.876220680  -3.964130694  -0.003911717
|805> H  -1.333587680  -2.969650694  -0.001035717
|806> H  -1.205185680  -4.511221694   0.883470283
|807> H  -1.203954680  -4.505491694  -0.895255717
|808> C   0.579546320  -3.850094694  -0.002545717
|809> N   1.737373320  -3.760016694  -0.001511717
|810> *
|811>
|812>
|813> $new_job
|814>
|815> # 4mecn.malloum.etal.dset.3mecn.dset-orca.engrad-mp2.def2tzvp
|816> ! MP2 def2-TZVP EnGrad TightSCF FrozenCore
|817>
|818> %pal
|819>     nprocs 12
|820> end
|821>
|822> %maxcore 8000
|823>
|824> %scf
|825>     ConvForced true
|826> end
|827>
|828> *xyz 0 1
|829> C  -3.439956561   3.277122774   0.004017746
|830> H  -3.987082561   3.606167774  -0.883313254
|831> H  -2.445466561   3.734470774   0.001131746
|832> H  -3.981271561   3.604795774   0.895412746
|833> C  -3.325944561   1.821353774   0.002529746
|834> N  -3.235884561   0.663525774   0.001396746
|835> C   3.964147439  -0.876238226   0.004163746
|836> H   4.511396439  -1.205367226  -0.883060254
|837> H   2.969647439  -1.333562226   0.001170746
|838> H   4.505321439  -1.203856226   0.895664746
|839> C   3.850175439   0.579533774   0.002547746
|840> N   3.760149439   1.737364774   0.001311746
|841> C  -1.814570561  -2.501589226  -0.006658254
|842> H  -2.271937561  -1.507109226  -0.003782254
|843> H  -2.143535561  -3.048680226   0.880723746
|844> H  -2.142304561  -3.042950226  -0.898002254
|845> C  -0.358803561  -2.387553226  -0.005292254
|846> N   0.799023439  -2.297475226  -0.004258254
|847> *
|848>
|849>
|850> $new_job
|851>
|852> # 4mecn.malloum.etal.dset.3mecn.dset-orca.engrad-mp2.def2tzvp
|853> ! MP2 def2-TZVP EnGrad TightSCF FrozenCore
|854>
|855> %pal
|856>     nprocs 12
|857> end
|858>
|859> %maxcore 8000
|860>
|861> %scf
|862>     ConvForced true
|863> end
|864>
|865> *xyz 0 1
|866> C   0.876218259   3.964130021  -0.004217495
|867> H   1.333594259   2.969654021  -0.001248495
|868> H   1.205353259   4.511388021   0.882999505
|869> H   1.203775259   4.505329021  -0.895725495
|870> C  -0.579546741   3.850083021  -0.002546495
|871> N  -1.737371741   3.759987021  -0.001267495
|872> C   2.501571259  -1.814556979   0.006899505
|873> H   3.048820259  -2.143685979  -0.880324495
|874> H   1.507071259  -2.271880979   0.003906505
|875> H   3.042745259  -2.142174979   0.898400505
|876> C   2.387599259  -0.358784979   0.005283505
|877> N   2.297573259   0.799046021   0.004047505
|878> C  -3.277146741  -3.439907979  -0.003922495
|879> H  -3.734513741  -2.445427979  -0.001046495
|880> H  -3.606111741  -3.986998979   0.883459505
|881> H  -3.604880741  -3.981268979  -0.895266495
|882> C  -1.821379741  -3.325871979  -0.002556495
|883> N  -0.663552741  -3.235793979  -0.001522495
|884> *
|885>
|886>                          ****END OF INPUT****
 Total Charge           Charge          ....    0
 Multiplicity           Mult            ....    1
 Number of Electrons    NEL             ....   66
MP2 TOTAL ENERGY:     -397.466952639 Eh
FINAL SINGLE POINT ENERGY      -397.466952638785
MP2 TOTAL ENERGY:     -397.466952848 Eh
FINAL SINGLE POINT ENERGY      -397.466952847740
MP2 TOTAL ENERGY:     -397.466952845 Eh
FINAL SINGLE POINT ENERGY      -397.466952845178
MP2 TOTAL ENERGY:     -397.466952849 Eh
FINAL SINGLE POINT ENERGY      -397.466952848846
MP2 TOTAL ENERGY:     -397.467145505 Eh
FINAL SINGLE POINT ENERGY      -397.467145505188
MP2 TOTAL ENERGY:     -397.467545922 Eh
FINAL SINGLE POINT ENERGY      -397.467545922076
FINAL SINGLE POINT ENERGY      -397.466530283160
FINAL SINGLE POINT ENERGY      -397.466530230617
FINAL SINGLE POINT ENERGY      -397.467384649093
FINAL SINGLE POINT ENERGY      -397.467385046125
FINAL SINGLE POINT ENERGY      -397.458614610649
FINAL SINGLE POINT ENERGY      -397.467991434271
FINAL SINGLE POINT ENERGY      -397.467750928162
FINAL SINGLE POINT ENERGY      -397.467770543980
MP2 TOTAL ENERGY:     -397.445678784 Eh
FINAL SINGLE POINT ENERGY      -397.445678784021
MP2 TOTAL ENERGY:     -397.467771053 Eh
FINAL SINGLE POINT ENERGY      -397.467771052694
MP2 TOTAL ENERGY:     -397.461186682 Eh
FINAL SINGLE POINT ENERGY      -397.461186682194
MP2 TOTAL ENERGY:     -397.461186836 Eh
FINAL SINGLE POINT ENERGY      -397.461186835679
MP2 TOTAL ENERGY:     -397.461186783 Eh
FINAL SINGLE POINT ENERGY      -397.461186783225

CARTESIAN COORDINATES (ANGSTROEM)
---------------------------------
  C      0.876218    3.964130   -0.004217
  H      1.333594    2.969654   -0.001248
  H      1.205353    4.511388    0.883000
  H      1.203775    4.505329   -0.895725
  C     -0.579547    3.850083   -0.002546
  N     -1.737372    3.759987   -0.001267
  C      2.501571   -1.814557    0.006900
  H      3.048820   -2.143686   -0.880324
  H      1.507071   -2.271881    0.003907
  H      3.042745   -2.142175    0.898401
  C      2.387599   -0.358785    0.005284
  N      2.297573    0.799046    0.004048
  C     -3.277147   -3.439908   -0.003922
  H     -3.734514   -2.445428   -0.001046
  H     -3.606112   -3.986999    0.883460
  H     -3.604881   -3.981269   -0.895266
  C     -1.821380   -3.325872   -0.002556
  N     -0.663553   -3.235794   -0.001522

 Multiplicity           Mult            ....    1
 Number of Electrons    NEL             ....   66
 Basis Dimension        Dim             ....  333

ORBITAL ENERGIES
----------------

  NO   OCC          E(Eh)            E(eV)
   0   2.0000     -15.585651      -424.1071
   1   2.0000     -15.567584      -423.6155
   2   2.0000     -15.550816      -423.1592
   3   2.0000     -11.296723      -307.3995
   4   2.0000     -11.294256      -307.3323
   5   2.0000     -11.279639      -306.9346
   6   2.0000     -11.268116      -306.6210
   7   2.0000     -11.260201      -306.4056
   8   2.0000     -11.254592      -306.2530
   9   2.0000      -1.232147       -33.5284
  10   2.0000      -1.215086       -33.0642
  11   2.0000      -1.197040       -32.5731
  12   2.0000      -1.049646       -28.5623
  13   2.0000      -1.027069       -27.9480
  14   2.0000      -1.012514       -27.5519
  15   2.0000      -0.709936       -19.3183
  16   2.0000      -0.688307       -18.7298
  17   2.0000      -0.672000       -18.2860
  18   2.0000      -0.638106       -17.3637
  19   2.0000      -0.637630       -17.3508
  20   2.0000      -0.619745       -16.8641
  21   2.0000      -0.616127       -16.7657
  22   2.0000      -0.605497       -16.4764
  23   2.0000      -0.602528       -16.3956
  24   2.0000      -0.569249       -15.4901
  25   2.0000      -0.552493       -15.0341
  26   2.0000      -0.536537       -14.5999
  27   2.0000      -0.475231       -12.9317
  28   2.0000      -0.475229       -12.9316
  29   2.0000      -0.457989       -12.4625
  30   2.0000      -0.456420       -12.4198
  31   2.0000      -0.440144       -11.9769
  32   2.0000      -0.438517       -11.9327
  33   0.0000       0.112803         3.0695
  34   0.0000       0.133628         3.6362
  35   0.0000       0.146931         3.9982
  36   0.0000       0.161302         4.3892
  37   0.0000       0.161950         4.4069

MULLIKEN ATOMIC CHARGES
-----------------------
   0 C :   -0.275228
   1 H :    0.197742
   2 H :    0.157967
   3 H :    0.157955
   4 C :   -0.154812
   5 N :   -0.100435
   6 C :   -0.274482
   7 H :    0.162536
   8 H :    0.198345
   9 H :    0.162533
  10 C :   -0.108315
  11 N :   -0.140056
  12 C :   -0.284809
  13 H :    0.183991
  14 H :    0.174474
  15 H :    0.174489
  16 C :   -0.100022
  17 N :   -0.131873
Sum of atomic charges:   -0.0000000

LOEWDIN ATOMIC CHARGES
----------------------
   0 C :   -0.286630
   1 H :    0.152347
   2 H :    0.147727
   3 H :    0.147726
   4 C :   -0.216128
   5 N :    0.031525
   6 C :   -0.281011
   7 H :    0.149705
   8 H :    0.153196
   9 H :    0.149708
  10 C :   -0.199887
  11 N :    0.028776
  12 C :   -0.276608
  13 H :    0.155141
  14 H :    0.152441
  15 H :    0.152449
  16 C :   -0.198054
  17 N :    0.037575

  Mayer bond orders larger than 0.100000
B(  0-C ,  1-H ) :   0.8998 B(  0-C ,  2-H ) :   0.9192 B(  0-C ,  3-H ) :   0.9192
B(  0-C ,  4-C ) :   0.9019 B(  4-C ,  5-N ) :   2.8575 B(  6-C ,  7-H ) :   0.9180
B(  6-C ,  8-H ) :   0.9009 B(  6-C ,  9-H ) :   0.9180 B(  6-C , 10-C ) :   0.9041
B( 10-C , 11-N ) :   2.7776 B( 12-C , 13-H ) :   0.9148 B( 12-C , 14-H ) :   0.9157
B( 12-C , 15-H ) :   0.9157 B( 12-C , 16-C ) :   0.9042 B( 16-C , 17-N ) :   2.7720

MP2 TOTAL ENERGY:     -397.461186836 Eh
FINAL SINGLE POINT ENERGY      -397.461186835835

DIPOLE MOMENT
-------------
                                X             Y             Z
Electronic contribution:     -0.34912       2.75466       0.00309
Nuclear contribution   :      0.37080      -4.66947      -0.00454
                        -----------------------------------------
Total Dipole Moment    :      0.02168      -1.91482      -0.00145
                        -----------------------------------------
Magnitude (a.u.)       :      1.91494
Magnitude (Debye)      :      4.86740

Rotational constants in cm-1:     0.035068     0.014265     0.010199
Rotational constants in MHz :  1051.307081   427.639019   305.746442

                             ****ORCA TERMINATED NORMALLY****
TOTAL RUN TIME: 0 days 0 hours 59 minutes 19 seconds 673 msec
