                         Program Version 4.2.0 -  RELEASE  -
|  1> # 5h2o.temelso.etal.dset.1h2o.dset-orca.engrad-mp2.def2tzvp
|  2> ! MP2 def2-TZVP EnGrad TightSCF FrozenCore
|  3>
|  4> %pal
|  5>     nprocs 12
|  6> end
|  7>
|  8> %maxcore 8000
|  9>
| 10> %scf
| 11>     ConvForced true
| 12> end
| 13>
| 14> *xyz 0 1
| 15> O   0.051497733  -0.033936474   0.025242561
| 16> H  -0.489202267  -0.284136474  -0.733757439
| 17> H  -0.328302267   0.822863526   0.333042561
| 18> *
| 19>
| 20>
| 21> $new_job
| 22>
| 23> # 5h2o.temelso.etal.dset.1h2o.dset-orca.engrad-mp2.def2tzvp
| 24> ! MP2 def2-TZVP EnGrad TightSCF FrozenCore
| 25>
| 26> %pal
| 27>     nprocs 12
| 28> end
| 29>
| 30> %maxcore 8000
| 31>
| 32> %scf
| 33>     ConvForced true
| 34> end
| 35>
| 36> *xyz 0 1
| 37> O  -0.013376543  -0.041500291  -0.050115882
| 38> H   0.706923457   0.628799709   0.012884118
| 39> H  -0.494576543   0.029999709   0.782684118
| 40> *
| 41>
| 42>
| 43> $new_job
| 44>
| 45> # 5h2o.temelso.etal.dset.1h2o.dset-orca.engrad-mp2.def2tzvp
| 46> ! MP2 def2-TZVP EnGrad TightSCF FrozenCore
| 47>
| 48> %pal
| 49>     nprocs 12
| 50> end
| 51>
| 52> %maxcore 8000
| 53>
| 54> %scf
| 55>     ConvForced true
| 56> end
| 57>
| 58> *xyz 0 1
| 59> O  -0.059760867   0.001342689  -0.030042675
| 60> H   0.185339133   0.440642689   0.793257325
| 61> H   0.763339133  -0.461957311  -0.316342675
| 62> *
| 63>
| 64>
| 65> $new_job
| 66>
| 67> # 5h2o.temelso.etal.dset.1h2o.dset-orca.engrad-mp2.def2tzvp
| 68> ! MP2 def2-TZVP EnGrad TightSCF FrozenCore
| 69>
| 70> %pal
| 71>     nprocs 12
| 72> end
| 73>
| 74> %maxcore 8000
| 75>
| 76> %scf
| 77>     ConvForced true
| 78> end
| 79>
| 80> *xyz 0 1
| 81> O  -0.013432488   0.036588286   0.054199895
| 82> H  -0.221732488  -0.913211714  -0.112900105
| 83> H   0.434967512   0.332388286  -0.747500105
| 84> *
| 85>
| 86>
| 87> $new_job
| 88>
| 89> # 5h2o.temelso.etal.dset.1h2o.dset-orca.engrad-mp2.def2tzvp
| 90> ! MP2 def2-TZVP EnGrad TightSCF FrozenCore
| 91>
| 92> %pal
| 93>     nprocs 12
| 94> end
| 95>
| 96> %maxcore 8000
| 97>
| 98> %scf
| 99>     ConvForced true
|100> end
|101>
|102> *xyz 0 1
|103> O   0.032218951   0.046904616  -0.034361659
|104> H  -0.941281049  -0.077695384   0.066938341
|105> H   0.429818951  -0.666895384   0.478538341
|106> *
|107>
|108>
|109> $new_job
|110>
|111> # 5h2o.temelso.etal.dset.1h2o.dset-orca.engrad-mp2.def2tzvp
|112> ! MP2 def2-TZVP EnGrad TightSCF FrozenCore
|113>
|114> %pal
|115>     nprocs 12
|116> end
|117>
|118> %maxcore 8000
|119>
|120> %scf
|121>     ConvForced true
|122> end
|123>
|124> *xyz 0 1
|125> O   0.048085064   0.045478009  -0.003619667
|126> H  -0.084714936  -0.752821991  -0.573019667
|127> H  -0.678614936   0.030878009   0.630480333
|128> *
|129>
|130>
|131> $new_job
|132>
|133> # 5h2o.temelso.etal.dset.1h2o.dset-orca.engrad-mp2.def2tzvp
|134> ! MP2 def2-TZVP EnGrad TightSCF FrozenCore
|135>
|136> %pal
|137>     nprocs 12
|138> end
|139>
|140> %maxcore 8000
|141>
|142> %scf
|143>     ConvForced true
|144> end
|145>
|146> *xyz 0 1
|147> O  -0.039184152   0.008979235   0.053522956
|148> H   0.911215848  -0.254220765   0.023622956
|149> H  -0.289184152   0.111679235  -0.873277044
|150> *
|151>
|152>
|153> $new_job
|154>
|155> # 5h2o.temelso.etal.dset.1h2o.dset-orca.engrad-mp2.def2tzvp
|156> ! MP2 def2-TZVP EnGrad TightSCF FrozenCore
|157>
|158> %pal
|159>     nprocs 12
|160> end
|161>
|162> %maxcore 8000
|163>
|164> %scf
|165>     ConvForced true
|166> end
|167>
|168> *xyz 0 1
|169> O  -0.042233176  -0.008598807  -0.050434770
|170> H   0.460766824  -0.696698807   0.401465230
|171> H   0.209666824   0.833201193   0.399165230
|172> *
|173>
|174>
|175> $new_job
|176>
|177> # 5h2o.temelso.etal.dset.1h2o.dset-orca.engrad-mp2.def2tzvp
|178> ! MP2 def2-TZVP EnGrad TightSCF FrozenCore
|179>
|180> %pal
|181>     nprocs 12
|182> end
|183>
|184> %maxcore 8000
|185>
|186> %scf
|187>     ConvForced true
|188> end
|189>
|190> *xyz 0 1
|191> O   0.054535567  -0.043027600   0.001236393
|192> H  -0.093764433   0.761072400  -0.531263607
|193> H  -0.771964433  -0.078027600   0.511636393
|194> *
|195>
|196>
|197> $new_job
|198>
|199> # 5h2o.temelso.etal.dset.1h2o.dset-orca.engrad-mp2.def2tzvp
|200> ! MP2 def2-TZVP EnGrad TightSCF FrozenCore
|201>
|202> %pal
|203>     nprocs 12
|204> end
|205>
|206> %maxcore 8000
|207>
|208> %scf
|209>     ConvForced true
|210> end
|211>
|212> *xyz 0 1
|213> O   0.038870858  -0.020414473  -0.049584400
|214> H   0.044070858   0.846285527   0.374915600
|215> H  -0.661129142  -0.522214473   0.412215600
|216> *
|217>
|218>
|219> $new_job
|220>
|221> # 5h2o.temelso.etal.dset.1h2o.dset-orca.engrad-mp2.def2tzvp
|222> ! MP2 def2-TZVP EnGrad TightSCF FrozenCore
|223>
|224> %pal
|225>     nprocs 12
|226> end
|227>
|228> %maxcore 8000
|229>
|230> %scf
|231>     ConvForced true
|232> end
|233>
|234> *xyz 0 1
|235> O  -0.033153239  -0.043872376   0.041114268
|236> H   0.772546761  -0.183072376  -0.485585732
|237> H  -0.246253239   0.879527624  -0.167085732
|238> *
|239>
|240>
|241> $new_job
|242>
|243> # 5h2o.temelso.etal.dset.1h2o.dset-orca.engrad-mp2.def2tzvp
|244> ! MP2 def2-TZVP EnGrad TightSCF FrozenCore
|245>
|246> %pal
|247>     nprocs 12
|248> end
|249>
|250> %maxcore 8000
|251>
|252> %scf
|253>     ConvForced true
|254> end
|255>
|256> *xyz 0 1
|257> O  -0.027883183   0.039682066   0.045086391
|258> H  -0.446483183  -0.700317934  -0.462413609
|259> H   0.889116817   0.070382066  -0.253313609
|260> *
|261>
|262>
|263> $new_job
|264>
|265> # 5h2o.temelso.etal.dset.1h2o.dset-orca.engrad-mp2.def2tzvp
|266> ! MP2 def2-TZVP EnGrad TightSCF FrozenCore
|267>
|268> %pal
|269>     nprocs 12
|270> end
|271>
|272> %maxcore 8000
|273>
|274> %scf
|275>     ConvForced true
|276> end
|277>
|278> *xyz 0 1
|279> O  -0.030462266  -0.051508922  -0.035273569
|280> H   0.409237734  -0.066708922   0.838426431
|281> H   0.074337734   0.884391078  -0.278473569
|282> *
|283>
|284>
|285> $new_job
|286>
|287> # 5h2o.temelso.etal.dset.1h2o.dset-orca.engrad-mp2.def2tzvp
|288> ! MP2 def2-TZVP EnGrad TightSCF FrozenCore
|289>
|290> %pal
|291>     nprocs 12
|292> end
|293>
|294> %maxcore 8000
|295>
|296> %scf
|297>     ConvForced true
|298> end
|299>
|300> *xyz 0 1
|301> O  -0.050675335  -0.020224259   0.036733744
|302> H   0.033724665   0.830975741  -0.409666256
|303> H   0.770724665  -0.509924259  -0.173466256
|304> *
|305>
|306>
|307> $new_job
|308>
|309> # 5h2o.temelso.etal.dset.1h2o.dset-orca.engrad-mp2.def2tzvp
|310> ! MP2 def2-TZVP EnGrad TightSCF FrozenCore
|311>
|312> %pal
|313>     nprocs 12
|314> end
|315>
|316> %maxcore 8000
|317>
|318> %scf
|319>     ConvForced true
|320> end
|321>
|322> *xyz 0 1
|323> O   0.044862609   0.031553201  -0.038300215
|324> H  -0.776537391   0.394653201   0.377399785
|325> H   0.064362609  -0.895546799   0.230599785
|326> *
|327>
|328>
|329> $new_job
|330>
|331> # 5h2o.temelso.etal.dset.1h2o.dset-orca.engrad-mp2.def2tzvp
|332> ! MP2 def2-TZVP EnGrad TightSCF FrozenCore
|333>
|334> %pal
|335>     nprocs 12
|336> end
|337>
|338> %maxcore 8000
|339>
|340> %scf
|341>     ConvForced true
|342> end
|343>
|344> *xyz 0 1
|345> O   0.009119099   0.042115691  -0.049522860
|346> H  -0.107480901   0.251215691   0.898377140
|347> H  -0.037280901  -0.919784309  -0.112222860
|348> *
|349>
|350>
|351> $new_job
|352>
|353> # 5h2o.temelso.etal.dset.1h2o.dset-orca.engrad-mp2.def2tzvp
|354> ! MP2 def2-TZVP EnGrad TightSCF FrozenCore
|355>
|356> %pal
|357>     nprocs 12
|358> end
|359>
|360> %maxcore 8000
|361>
|362> %scf
|363>     ConvForced true
|364> end
|365>
|366> *xyz 0 1
|367> O  -0.052208239  -0.029455249  -0.027211838
|368> H   0.709491761   0.408244751  -0.485811838
|369> H   0.119291761   0.059344751   0.917788162
|370> *
|371>
|372>
|373> $new_job
|374>
|375> # 5h2o.temelso.etal.dset.1h2o.dset-orca.engrad-mp2.def2tzvp
|376> ! MP2 def2-TZVP EnGrad TightSCF FrozenCore
|377>
|378> %pal
|379>     nprocs 12
|380> end
|381>
|382> %maxcore 8000
|383>
|384> %scf
|385>     ConvForced true
|386> end
|387>
|388> *xyz 0 1
|389> O   0.029981135   0.008285512   0.060225214
|390> H  -0.081818865  -0.814214488  -0.442074786
|391> H  -0.394118865   0.682685512  -0.513974786
|392> *
|393>
|394>
|395> $new_job
|396>
|397> # 5h2o.temelso.etal.dset.1h2o.dset-orca.engrad-mp2.def2tzvp
|398> ! MP2 def2-TZVP EnGrad TightSCF FrozenCore
|399>
|400> %pal
|401>     nprocs 12
|402> end
|403>
|404> %maxcore 8000
|405>
|406> %scf
|407>     ConvForced true
|408> end
|409>
|410> *xyz 0 1
|411> O   0.044012239   0.027670591   0.041058323
|412> H  -0.742687761  -0.515929409   0.270758323
|413> H   0.044012239   0.076670591  -0.922541677
|414> *
|415>
|416>
|417> $new_job
|418>
|419> # 5h2o.temelso.etal.dset.1h2o.dset-orca.engrad-mp2.def2tzvp
|420> ! MP2 def2-TZVP EnGrad TightSCF FrozenCore
|421>
|422> %pal
|423>     nprocs 12
|424> end
|425>
|426> %maxcore 8000
|427>
|428> %scf
|429>     ConvForced true
|430> end
|431>
|432> *xyz 0 1
|433> O  -0.032728054   0.046126975  -0.039435906
|434> H   0.113671946   0.051726975   0.921664094
|435> H   0.405871946  -0.783973025  -0.295635906
|436> *
|437>
|438>
|439> $new_job
|440>
|441> # 5h2o.temelso.etal.dset.1h2o.dset-orca.engrad-mp2.def2tzvp
|442> ! MP2 def2-TZVP EnGrad TightSCF FrozenCore
|443>
|444> %pal
|445>     nprocs 12
|446> end
|447>
|448> %maxcore 8000
|449>
|450> %scf
|451>     ConvForced true
|452> end
|453>
|454> *xyz 0 1
|455> O  -0.023306850   0.042266743   0.045175903
|456> H  -0.524606850  -0.624133257  -0.478324097
|457> H   0.894593150  -0.046833257  -0.238824097
|458> *
|459>
|460>
|461> $new_job
|462>
|463> # 5h2o.temelso.etal.dset.1h2o.dset-orca.engrad-mp2.def2tzvp
|464> ! MP2 def2-TZVP EnGrad TightSCF FrozenCore
|465>
|466> %pal
|467>     nprocs 12
|468> end
|469>
|470> %maxcore 8000
|471>
|472> %scf
|473>     ConvForced true
|474> end
|475>
|476> *xyz 0 1
|477> O   0.048969001   0.021723595  -0.039956198
|478> H  -0.739330999   0.511123595   0.281343802
|479> H  -0.038030999  -0.855976405   0.352943802
|480> *
|481>
|482>
|483> $new_job
|484>
|485> # 5h2o.temelso.etal.dset.1h2o.dset-orca.engrad-mp2.def2tzvp
|486> ! MP2 def2-TZVP EnGrad TightSCF FrozenCore
|487>
|488> %pal
|489>     nprocs 12
|490> end
|491>
|492> %maxcore 8000
|493>
|494> %scf
|495>     ConvForced true
|496> end
|497>
|498> *xyz 0 1
|499> O   0.024129247   0.002025223  -0.061316149
|500> H  -0.898070753  -0.143174777   0.182383851
|501> H   0.515029247   0.111025223   0.790983851
|502> *
|503>
|504>
|505> $new_job
|506>
|507> # 5h2o.temelso.etal.dset.1h2o.dset-orca.engrad-mp2.def2tzvp
|508> ! MP2 def2-TZVP EnGrad TightSCF FrozenCore
|509>
|510> %pal
|511>     nprocs 12
|512> end
|513>
|514> %maxcore 8000
|515>
|516> %scf
|517>     ConvForced true
|518> end
|519>
|520> *xyz 0 1
|521> O  -0.049987207  -0.027743320   0.039586959
|522> H   0.008012793   0.861056680  -0.361213041
|523> H   0.785512793  -0.420643320  -0.267213041
|524> *
|525>
|526>
|527> $new_job
|528>
|529> # 5h2o.temelso.etal.dset.1h2o.dset-orca.engrad-mp2.def2tzvp
|530> ! MP2 def2-TZVP EnGrad TightSCF FrozenCore
|531>
|532> %pal
|533>     nprocs 12
|534> end
|535>
|536> %maxcore 8000
|537>
|538> %scf
|539>     ConvForced true
|540> end
|541>
|542> *xyz 0 1
|543> O   0.001365068   0.061976304   0.027849616
|544> H  -0.763334932  -0.436223696  -0.301450384
|545> H   0.741665068  -0.547623696  -0.140650384
|546> *
|547>
|548>
|549> $new_job
|550>
|551> # 5h2o.temelso.etal.dset.1h2o.dset-orca.engrad-mp2.def2tzvp
|552> ! MP2 def2-TZVP EnGrad TightSCF FrozenCore
|553>
|554> %pal
|555>     nprocs 12
|556> end
|557>
|558> %maxcore 8000
|559>
|560> %scf
|561>     ConvForced true
|562> end
|563>
|564> *xyz 0 1
|565> O   0.042725495   0.000833586   0.051464165
|566> H  -0.924774505  -0.168666414   0.062664165
|567> H   0.246525495   0.155433586  -0.879635835
|568> *
|569>
|570>
|571> $new_job
|572>
|573> # 5h2o.temelso.etal.dset.1h2o.dset-orca.engrad-mp2.def2tzvp
|574> ! MP2 def2-TZVP EnGrad TightSCF FrozenCore
|575>
|576> %pal
|577>     nprocs 12
|578> end
|579>
|580> %maxcore 8000
|581>
|582> %scf
|583>     ConvForced true
|584> end
|585>
|586> *xyz 0 1
|587> O   0.029628679  -0.010948513  -0.058569230
|588> H  -0.189171321   0.847751487   0.359030770
|589> H  -0.281171321  -0.673948513   0.570730770
|590> *
|591>
|592>
|593> $new_job
|594>
|595> # 5h2o.temelso.etal.dset.1h2o.dset-orca.engrad-mp2.def2tzvp
|596> ! MP2 def2-TZVP EnGrad TightSCF FrozenCore
|597>
|598> %pal
|599>     nprocs 12
|600> end
|601>
|602> %maxcore 8000
|603>
|604> %scf
|605>     ConvForced true
|606> end
|607>
|608> *xyz 0 1
|609> O  -0.026993651  -0.010836622  -0.059257358
|610> H  -0.506893651   0.218163378   0.746242642
|611> H   0.935406349  -0.046136622   0.194442642
|612> *
|613>
|614>
|615> $new_job
|616>
|617> # 5h2o.temelso.etal.dset.1h2o.dset-orca.engrad-mp2.def2tzvp
|618> ! MP2 def2-TZVP EnGrad TightSCF FrozenCore
|619>
|620> %pal
|621>     nprocs 12
|622> end
|623>
|624> %maxcore 8000
|625>
|626> %scf
|627>     ConvForced true
|628> end
|629>
|630> *xyz 0 1
|631> O  -0.012626875   0.007244928   0.066077102
|632> H  -0.028226875   0.693544928  -0.625022898
|633> H   0.228673125  -0.808555072  -0.423922898
|634> *
|635>
|636>
|637> $new_job
|638>
|639> # 5h2o.temelso.etal.dset.1h2o.dset-orca.engrad-mp2.def2tzvp
|640> ! MP2 def2-TZVP EnGrad TightSCF FrozenCore
|641>
|642> %pal
|643>     nprocs 12
|644> end
|645>
|646> %maxcore 8000
|647>
|648> %scf
|649>     ConvForced true
|650> end
|651>
|652> *xyz 0 1
|653> O   0.049343835  -0.030132188  -0.032851134
|654> H  -0.065156165   0.917067812   0.115548866
|655> H  -0.718156165  -0.438732188   0.405948866
|656> *
|657>
|658>
|659> $new_job
|660>
|661> # 5h2o.temelso.etal.dset.1h2o.dset-orca.engrad-mp2.def2tzvp
|662> ! MP2 def2-TZVP EnGrad TightSCF FrozenCore
|663>
|664> %pal
|665>     nprocs 12
|666> end
|667>
|668> %maxcore 8000
|669>
|670> %scf
|671>     ConvForced true
|672> end
|673>
|674> *xyz 0 1
|675> O   0.041774424   0.048443114  -0.018098334
|676> H  -0.908425576  -0.048156886  -0.240298334
|677> H   0.245274424  -0.720856886   0.527601666
|678> *
|679>
|680>
|681> $new_job
|682>
|683> # 5h2o.temelso.etal.dset.1h2o.dset-orca.engrad-mp2.def2tzvp
|684> ! MP2 def2-TZVP EnGrad TightSCF FrozenCore
|685>
|686> %pal
|687>     nprocs 12
|688> end
|689>
|690> %maxcore 8000
|691>
|692> %scf
|693>     ConvForced true
|694> end
|695>
|696> *xyz 0 1
|697> O   0.040342222  -0.025471937  -0.046753564
|698> H  -0.112457778   0.915528063   0.178646436
|699> H  -0.527957778  -0.511171937   0.563546436
|700> *
|701>
|702>
|703> $new_job
|704>
|705> # 5h2o.temelso.etal.dset.1h2o.dset-orca.engrad-mp2.def2tzvp
|706> ! MP2 def2-TZVP EnGrad TightSCF FrozenCore
|707>
|708> %pal
|709>     nprocs 12
|710> end
|711>
|712> %maxcore 8000
|713>
|714> %scf
|715>     ConvForced true
|716> end
|717>
|718> *xyz 0 1
|719> O  -0.019155702  -0.013980753  -0.061786090
|720> H  -0.579855702   0.347519247   0.635713910
|721> H   0.883944298  -0.125580753   0.345113910
|722> *
|723>
|724>
|725> $new_job
|726>
|727> # 5h2o.temelso.etal.dset.1h2o.dset-orca.engrad-mp2.def2tzvp
|728> ! MP2 def2-TZVP EnGrad TightSCF FrozenCore
|729>
|730> %pal
|731>     nprocs 12
|732> end
|733>
|734> %maxcore 8000
|735>
|736> %scf
|737>     ConvForced true
|738> end
|739>
|740> *xyz 0 1
|741> O  -0.024420163   0.013756972   0.060532913
|742> H   0.168579837   0.645456972  -0.656067087
|743> H   0.219079837  -0.863843028  -0.304867087
|744> *
|745>
|746>
|747> $new_job
|748>
|749> # 5h2o.temelso.etal.dset.1h2o.dset-orca.engrad-mp2.def2tzvp
|750> ! MP2 def2-TZVP EnGrad TightSCF FrozenCore
|751>
|752> %pal
|753>     nprocs 12
|754> end
|755>
|756> %maxcore 8000
|757>
|758> %scf
|759>     ConvForced true
|760> end
|761>
|762> *xyz 0 1
|763> O   0.052487966  -0.031866495  -0.025829987
|764> H  -0.015512034   0.904633505   0.199870013
|765> H  -0.817712034  -0.398766495   0.210170013
|766> *
|767>
|768>                          ****END OF INPUT****
 Total Charge           Charge          ....    0
 Multiplicity           Mult            ....    1
 Number of Electrons    NEL             ....   10
MP2 TOTAL ENERGY:      -76.312508297 Eh
FINAL SINGLE POINT ENERGY       -76.312508296536
MP2 TOTAL ENERGY:      -76.312522046 Eh
FINAL SINGLE POINT ENERGY       -76.312522045726
MP2 TOTAL ENERGY:      -76.312495505 Eh
FINAL SINGLE POINT ENERGY       -76.312495505304
MP2 TOTAL ENERGY:      -76.312505015 Eh
FINAL SINGLE POINT ENERGY       -76.312505015312
MP2 TOTAL ENERGY:      -76.312491478 Eh
FINAL SINGLE POINT ENERGY       -76.312491477820
MP2 TOTAL ENERGY:      -76.312338450 Eh
FINAL SINGLE POINT ENERGY       -76.312338450254
FINAL SINGLE POINT ENERGY       -76.312508625483
FINAL SINGLE POINT ENERGY       -76.312465181620
FINAL SINGLE POINT ENERGY       -76.312540019288
FINAL SINGLE POINT ENERGY       -76.312830517004
FINAL SINGLE POINT ENERGY       -76.312680502231
FINAL SINGLE POINT ENERGY       -76.312766821397
FINAL SINGLE POINT ENERGY       -76.311930884284
FINAL SINGLE POINT ENERGY       -76.312586661921
MP2 TOTAL ENERGY:      -76.312919837 Eh
FINAL SINGLE POINT ENERGY       -76.312919836620
MP2 TOTAL ENERGY:      -76.312734884 Eh
FINAL SINGLE POINT ENERGY       -76.312734883530
MP2 TOTAL ENERGY:      -76.312773674 Eh
FINAL SINGLE POINT ENERGY       -76.312773673678
MP2 TOTAL ENERGY:      -76.311895067 Eh
FINAL SINGLE POINT ENERGY       -76.311895067288
MP2 TOTAL ENERGY:      -76.312571885 Eh
FINAL SINGLE POINT ENERGY       -76.312571885046

CARTESIAN COORDINATES (ANGSTROEM)
---------------------------------
  O      0.052488   -0.031866   -0.025830
  H     -0.015512    0.904634    0.199870
  H     -0.817712   -0.398766    0.210170

 Multiplicity           Mult            ....    1
 Number of Electrons    NEL             ....   10
 Basis Dimension        Dim             ....   43

ORBITAL ENERGIES
----------------

  NO   OCC          E(Eh)            E(eV)
   0   2.0000     -20.562090      -559.5229
   1   2.0000      -1.343677       -36.5633
   2   2.0000      -0.707572       -19.2540
   3   2.0000      -0.579493       -15.7688
   4   2.0000      -0.507149       -13.8002
   5   0.0000       0.126342         3.4379
   6   0.0000       0.196363         5.3433
   7   0.0000       0.520093        14.1524
   8   0.0000       0.565426        15.3860
   9   0.0000       0.597522        16.2594

MULLIKEN ATOMIC CHARGES
-----------------------
   0 O :   -0.673378
   1 H :    0.336205
   2 H :    0.337173
Sum of atomic charges:    0.0000000

LOEWDIN ATOMIC CHARGES
----------------------
   0 O :   -0.327772
   1 H :    0.161185
   2 H :    0.166587

  Mayer bond orders larger than 0.100000
B(  0-O ,  1-H ) :   0.8550 B(  0-O ,  2-H ) :   0.8532

MP2 TOTAL ENERGY:      -76.312930100 Eh
FINAL SINGLE POINT ENERGY       -76.312930100494

DIPOLE MOMENT
-------------
                                X             Y             Z
Electronic contribution:      0.12420      -0.07305      -0.06062
Nuclear contribution   :     -0.78092       0.47411       0.38430
                        -----------------------------------------
Total Dipole Moment    :     -0.65672       0.40106       0.32368
                        -----------------------------------------
Magnitude (a.u.)       :      0.83481
Magnitude (Debye)      :      2.12191

Rotational constants in cm-1:    26.567265    14.277626     9.286779
Rotational constants in MHz : 796466.555516 428032.447877 278410.622193

                             ****ORCA TERMINATED NORMALLY****
TOTAL RUN TIME: 0 days 0 hours 3 minutes 4 seconds 835 msec
