                         Program Version 4.2.0 -  RELEASE  -
|  1> # 5h2o.temelso.etal.dset.3h2o-orca.engrad-mp2.augccpvtz-50.to.69
|  2> ! MP2 aug-cc-pVTZ EnGrad TightSCF FrozenCore
|  3>
|  4> %pal
|  5>     nprocs 12
|  6> end
|  7>
|  8> %maxcore 8000
|  9>
| 10> %scf
| 11>     ConvForced true
| 12> end
| 13>
| 14> *xyz 0 1
| 15> O   1.903453508  -0.704017183  -0.564220808
| 16> H   0.935953508  -0.873517183  -0.553020808
| 17> H   2.107253508  -0.549417183  -1.495320808
| 18> O  -0.872646492  -0.923817183  -0.371120808
| 19> H  -1.091446492  -0.065117183   0.046479192
| 20> H  -1.183446492  -1.586817183   0.258179192
| 21> O  -0.985446492   1.606882817   0.868979192
| 22> H  -1.465346492   1.835882817   1.674479192
| 23> H  -0.023046492   1.571582817   1.122679192
| 24> *
| 25>
| 26>
| 27> $new_job
| 28>
| 29> # 5h2o.temelso.etal.dset.3h2o-orca.engrad-mp2.augccpvtz-50.to.69
| 30> ! MP2 aug-cc-pVTZ EnGrad TightSCF FrozenCore
| 31>
| 32> %pal
| 33>     nprocs 12
| 34> end
| 35>
| 36> %maxcore 8000
| 37>
| 38> %scf
| 39>     ConvForced true
| 40> end
| 41>
| 42> *xyz 0 1
| 43> O   1.018109100  -0.702190000  -0.565509321
| 44> H   0.050609100  -0.871690000  -0.554309321
| 45> H   1.221909100  -0.547590000  -1.496609321
| 46> O  -1.757990900  -0.921990000  -0.372409321
| 47> H  -1.976790900  -0.063290000   0.045190679
| 48> H  -2.068790900  -1.584990000   0.256890679
| 49> O   0.799609100   1.621310000   0.996890679
| 50> H   0.784009100   2.307610000   0.305790679
| 51> H   1.040909100   0.805510000   0.506890679
| 52> *
| 53>
| 54>
| 55> $new_job
| 56>
| 57> # 5h2o.temelso.etal.dset.3h2o-orca.engrad-mp2.augccpvtz-50.to.69
| 58> ! MP2 aug-cc-pVTZ EnGrad TightSCF FrozenCore
| 59>
| 60> %pal
| 61>     nprocs 12
| 62> end
| 63>
| 64> %maxcore 8000
| 65>
| 66> %scf
| 67>     ConvForced true
| 68> end
| 69>
| 70> *xyz 0 1
| 71> O   1.444166003  -1.286449038   0.066414601
| 72> H   0.476666003  -1.455949038   0.077614601
| 73> H   1.647966003  -1.131849038  -0.864685399
| 74> O  -1.331933997  -1.506249038   0.259514601
| 75> H  -1.550733997  -0.647549038   0.677114601
| 76> H  -1.642733997  -2.169249038   0.888814601
| 77> O   0.009466003   2.752450962  -0.365885399
| 78> H  -0.105033997   3.699650962  -0.217485399
| 79> H  -0.758033997   2.343850962   0.072914601
| 80> *
| 81>
| 82>
| 83> $new_job
| 84>
| 85> # 5h2o.temelso.etal.dset.3h2o-orca.engrad-mp2.augccpvtz-50.to.69
| 86> ! MP2 aug-cc-pVTZ EnGrad TightSCF FrozenCore
| 87>
| 88> %pal
| 89>     nprocs 12
| 90> end
| 91>
| 92> %maxcore 8000
| 93>
| 94> %scf
| 95>     ConvForced true
| 96> end
| 97>
| 98> *xyz 0 1
| 99> O   1.036834990  -1.545719369  -0.979105364
|100> H   0.069334990  -1.715219369  -0.967905364
|101> H   1.240634990  -1.391119369  -1.910205364
|102> O  -1.852065010   0.765180631   0.454094636
|103> H  -2.331965010   0.994180631   1.259594636
|104> H  -0.889665010   0.729880631   0.707794636
|105> O   0.818334990   0.777780631   0.583294636
|106> H   0.802734990   1.464080631  -0.107805364
|107> H   1.059634990  -0.038019369   0.093294636
|108> *
|109>
|110>
|111> $new_job
|112>
|113> # 5h2o.temelso.etal.dset.3h2o-orca.engrad-mp2.augccpvtz-50.to.69
|114> ! MP2 aug-cc-pVTZ EnGrad TightSCF FrozenCore
|115>
|116> %pal
|117>     nprocs 12
|118> end
|119>
|120> %maxcore 8000
|121>
|122> %scf
|123>     ConvForced true
|124> end
|125>
|126> *xyz 0 1
|127> O   1.462891893  -2.129978408  -0.347181442
|128> H   0.495391893  -2.299478408  -0.335981442
|129> H   1.666691893  -1.975378408  -1.278281442
|130> O  -1.426008107   0.180921592   1.086018558
|131> H  -1.905908107   0.409921592   1.891518558
|132> H  -0.463608107   0.145621592   1.339718558
|133> O   0.028191893   1.908921592  -0.779481442
|134> H  -0.086308107   2.856121592  -0.631081442
|135> H  -0.739308107   1.500321592  -0.340681442
|136> *
|137>
|138>
|139> $new_job
|140>
|141> # 5h2o.temelso.etal.dset.3h2o-orca.engrad-mp2.augccpvtz-50.to.69
|142> ! MP2 aug-cc-pVTZ EnGrad TightSCF FrozenCore
|143>
|144> %pal
|145>     nprocs 12
|146> end
|147>
|148> %maxcore 8000
|149>
|150> %scf
|151>     ConvForced true
|152> end
|153>
|154> *xyz 0 1
|155> O   0.577547485  -2.128151224  -0.348469956
|156> H  -0.389952515  -2.297651224  -0.337269956
|157> H   0.781347485  -1.973551224  -1.279569956
|158> O   0.359047485   0.195348776   1.213930044
|159> H   0.343447485   0.881648776   0.522830044
|160> H   0.600347485  -0.620451224   0.723930044
|161> O  -0.857152515   1.910748776  -0.780769956
|162> H  -0.971652515   2.857948776  -0.632369956
|163> H  -1.624652515   1.502148776  -0.341969956
|164> *
|165>
|166>
|167> $new_job
|168>
|169> # 5h2o.temelso.etal.dset.3h2o-orca.engrad-mp2.augccpvtz-50.to.69
|170> ! MP2 aug-cc-pVTZ EnGrad TightSCF FrozenCore
|171>
|172> %pal
|173>     nprocs 12
|174> end
|175>
|176> %maxcore 8000
|177>
|178> %scf
|179>     ConvForced true
|180> end
|181>
|182> *xyz 0 1
|183> O  -0.818263949  -1.696180069  -0.887049829
|184> H  -1.037063949  -0.837480069  -0.469449829
|185> H  -1.129063949  -2.359180069  -0.257749829
|186> O  -0.931063949   0.834519931   0.353050171
|187> H  -1.410963949   1.063519931   1.158550171
|188> H   0.031336051   0.799219931   0.606750171
|189> O   1.739336051   0.847119931   0.482250171
|190> H   1.723736051   1.533419931  -0.208849829
|191> H   1.980636051   0.031319931  -0.007749829
|192> *
|193>
|194>
|195> $new_job
|196>
|197> # 5h2o.temelso.etal.dset.3h2o-orca.engrad-mp2.augccpvtz-50.to.69
|198> ! MP2 aug-cc-pVTZ EnGrad TightSCF FrozenCore
|199>
|200> %pal
|201>     nprocs 12
|202> end
|203>
|204> %maxcore 8000
|205>
|206> %scf
|207>     ConvForced true
|208> end
|209>
|210> *xyz 0 1
|211> O  -0.392207046  -2.280439108  -0.255125907
|212> H  -0.611007046  -1.421739108   0.162474093
|213> H  -0.703007046  -2.943439108   0.374174093
|214> O  -0.505007046   0.250260892   0.984974093
|215> H  -0.984907046   0.479260892   1.790474093
|216> H   0.457392954   0.214960892   1.238674093
|217> O   0.949192954   1.978260892  -0.880525907
|218> H   0.834692954   2.925460892  -0.732125907
|219> H   0.181692954   1.569660892  -0.441725907
|220> *
|221>
|222>
|223> $new_job
|224>
|225> # 5h2o.temelso.etal.dset.3h2o-orca.engrad-mp2.augccpvtz-50.to.69
|226> ! MP2 aug-cc-pVTZ EnGrad TightSCF FrozenCore
|227>
|228> %pal
|229>     nprocs 12
|230> end
|231>
|232> %maxcore 8000
|233>
|234> %scf
|235>     ConvForced true
|236> end
|237>
|238> *xyz 0 1
|239> O  -1.277551453  -2.278611924  -0.256414421
|240> H  -1.496351453  -1.419911924   0.161185579
|241> H  -1.588351453  -2.941611924   0.372885579
|242> O   1.280048547   0.264688076   1.112885579
|243> H   1.264448547   0.950988076   0.421785579
|244> H   1.521348547  -0.551111924   0.622885579
|245> O   0.063848547   1.980088076  -0.881814421
|246> H  -0.050651453   2.927288076  -0.733414421
|247> H  -0.703651453   1.571488076  -0.443014421
|248> *
|249>
|250>
|251> $new_job
|252>
|253> # 5h2o.temelso.etal.dset.3h2o-orca.engrad-mp2.augccpvtz-50.to.69
|254> ! MP2 aug-cc-pVTZ EnGrad TightSCF FrozenCore
|255>
|256> %pal
|257>     nprocs 12
|258> end
|259>
|260> %maxcore 8000
|261>
|262> %scf
|263>     ConvForced true
|264> end
|265>
|266> *xyz 0 1
|267> O  -1.371625564  -0.591441294   0.570089536
|268> H  -1.851525564  -0.362441294   1.375589536
|269> H  -0.409225564  -0.626741294   0.823789536
|270> O   1.298774436  -0.578841294   0.699289536
|271> H   1.283174436   0.107458706   0.008189536
|272> H   1.540074436  -1.394641294   0.209289536
|273> O   0.082574436   1.136558706  -1.295410464
|274> H  -0.031925564   2.083758706  -1.147010464
|275> H  -0.684925564   0.727958706  -0.856610464
|276> *
|277>
|278>
|279> $new_job
|280>
|281> # 5h2o.temelso.etal.dset.3h2o-orca.engrad-mp2.augccpvtz-50.to.69
|282> ! MP2 aug-cc-pVTZ EnGrad TightSCF FrozenCore
|283>
|284> %pal
|285>     nprocs 12
|286> end
|287>
|288> %maxcore 8000
|289>
|290> %scf
|291>     ConvForced true
|292> end
|293>
|294> *xyz 0 1
|295> O   1.886886981  -0.929803192  -0.079245996
|296> H   0.936686981  -1.026403192  -0.301445996
|297> H   2.090386981  -1.699103192   0.466454004
|298> O  -0.912913019  -0.871203192  -0.472445996
|299> H  -1.065713019   0.069796808  -0.247045996
|300> H  -1.481213019  -1.356903192   0.137854004
|301> O  -0.911013019   1.809996808   0.425054004
|302> H  -1.471713019   2.171496808   1.122554004
|303> H  -0.007913019   1.698396808   0.831954004
|304> *
|305>
|306>
|307> $new_job
|308>
|309> # 5h2o.temelso.etal.dset.3h2o-orca.engrad-mp2.augccpvtz-50.to.69
|310> ! MP2 aug-cc-pVTZ EnGrad TightSCF FrozenCore
|311>
|312> %pal
|313>     nprocs 12
|314> end
|315>
|316> %maxcore 8000
|317>
|318> %scf
|319>     ConvForced true
|320> end
|321>
|322> *xyz 0 1
|323> O   1.022965494  -0.856723950  -0.247772995
|324> H   0.072765494  -0.953323950  -0.469972995
|325> H   1.226465494  -1.626023950   0.297927005
|326> O  -1.776834506  -0.798123950  -0.640972995
|327> H  -1.929634506   0.142876050  -0.415572995
|328> H  -2.345134506  -1.283823950  -0.030672995
|329> O   0.811565494   1.691576050   0.884427005
|330> H   1.004565494   2.323276050   0.167827005
|331> H   1.055065494   0.813976050   0.519027005
|332> *
|333>
|334>
|335> $new_job
|336>
|337> # 5h2o.temelso.etal.dset.3h2o-orca.engrad-mp2.augccpvtz-50.to.69
|338> ! MP2 aug-cc-pVTZ EnGrad TightSCF FrozenCore
|339>
|340> %pal
|341>     nprocs 12
|342> end
|343>
|344> %maxcore 8000
|345>
|346> %scf
|347>     ConvForced true
|348> end
|349>
|350> *xyz 0 1
|351> O   1.257501537  -1.477231772   0.441739372
|352> H   0.307301537  -1.573831772   0.219539372
|353> H   1.461001537  -2.246531772   0.987439372
|354> O  -1.542298463  -1.418631772   0.048539372
|355> H  -1.695098463  -0.477631772   0.273939372
|356> H  -2.110598463  -1.904331772   0.658839372
|357> O   0.419401537   2.886968228  -0.580960628
|358> H   0.351401537   3.823468228  -0.355260628
|359> H  -0.450798463   2.520068228  -0.344960628
|360> *
|361>
|362>
|363> $new_job
|364>
|365> # 5h2o.temelso.etal.dset.3h2o-orca.engrad-mp2.augccpvtz-50.to.69
|366> ! MP2 aug-cc-pVTZ EnGrad TightSCF FrozenCore
|367>
|368> %pal
|369>     nprocs 12
|370> end
|371>
|372> %maxcore 8000
|373>
|374> %scf
|375>     ConvForced true
|376> end
|377>
|378> *xyz 0 1
|379> O   1.002499519  -1.746626889  -0.551950504
|380> H   0.052299519  -1.843226889  -0.774150504
|381> H   1.205999519  -2.515926889  -0.006250504
|382> O  -1.795400481   0.993173111  -0.047650504
|383> H  -2.356100481   1.354673111   0.649849496
|384> H  -0.892300481   0.881573111   0.359249496
|385> O   0.791099519   0.801673111   0.580249496
|386> H   0.984099519   1.433373111  -0.136350504
|387> H   1.034599519  -0.075926889   0.214849496
|388> *
|389>
|390>
|391> $new_job
|392>
|393> # 5h2o.temelso.etal.dset.3h2o-orca.engrad-mp2.augccpvtz-50.to.69
|394> ! MP2 aug-cc-pVTZ EnGrad TightSCF FrozenCore
|395>
|396> %pal
|397>     nprocs 12
|398> end
|399>
|400> %maxcore 8000
|401>
|402> %scf
|403>     ConvForced true
|404> end
|405>
|406> *xyz 0 1
|407> O   1.237035563  -2.367134711   0.137561863
|408> H   0.286835563  -2.463734711  -0.084638137
|409> H   1.440535563  -3.136434711   0.683261863
|410> O  -1.560864437   0.372665289   0.641861863
|411> H  -2.121564437   0.734165289   1.339361863
|412> H  -0.657764437   0.261065289   1.048761863
|413> O   0.398935563   1.997065289  -0.885138137
|414> H   0.330935563   2.933565289  -0.659438137
|415> H  -0.471264437   1.630165289  -0.649138137
|416> *
|417>
|418>
|419> $new_job
|420>
|421> # 5h2o.temelso.etal.dset.3h2o-orca.engrad-mp2.augccpvtz-50.to.69
|422> ! MP2 aug-cc-pVTZ EnGrad TightSCF FrozenCore
|423>
|424> %pal
|425>     nprocs 12
|426> end
|427>
|428> %maxcore 8000
|429>
|430> %scf
|431>     ConvForced true
|432> end
|433>
|434> *xyz 0 1
|435> O   0.373114075  -2.294055470  -0.030965136
|436> H  -0.577085925  -2.390655470  -0.253165136
|437> H   0.576614075  -3.063355470   0.514734864
|438> O   0.161714075   0.254244530   1.101234864
|439> H   0.354714075   0.885944530   0.384634864
|440> H   0.405214075  -0.623355470   0.735834864
|441> O  -0.464985925   2.070144530  -1.053665136
|442> H  -0.532985925   3.006644530  -0.827965136
|443> H  -1.335185925   1.703244530  -0.817665136
|444> *
|445>
|446>
|447> $new_job
|448>
|449> # 5h2o.temelso.etal.dset.3h2o-orca.engrad-mp2.augccpvtz-50.to.69
|450> ! MP2 aug-cc-pVTZ EnGrad TightSCF FrozenCore
|451>
|452> %pal
|453>     nprocs 12
|454> end
|455>
|456> %maxcore 8000
|457>
|458> %scf
|459>     ConvForced true
|460> end
|461>
|462> *xyz 0 1
|463> O  -0.864511215  -1.732198573  -0.823635580
|464> H  -1.017311215  -0.791198573  -0.598235580
|465> H  -1.432811215  -2.217898573  -0.213335580
|466> O  -0.862611215   0.949001427   0.073864420
|467> H  -1.423311215   1.310501427   0.771364420
|468> H   0.040488785   0.837401427   0.480764420
|469> O   1.723888785   0.757501427   0.701764420
|470> H   1.916888785   1.389201427  -0.014835580
|471> H   1.967388785  -0.120098573   0.336364420
|472> *
|473>
|474>
|475> $new_job
|476>
|477> # 5h2o.temelso.etal.dset.3h2o-orca.engrad-mp2.augccpvtz-50.to.69
|478> ! MP2 aug-cc-pVTZ EnGrad TightSCF FrozenCore
|479>
|480> %pal
|481>     nprocs 12
|482> end
|483>
|484> %maxcore 8000
|485>
|486> %scf
|487>     ConvForced true
|488> end
|489>
|490> *xyz 0 1
|491> O  -0.629975171  -2.352706395  -0.134123214
|492> H  -0.782775171  -1.411706395   0.091276786
|493> H  -1.198275171  -2.838406395   0.476176786
|494> O  -0.628075171   0.328493605   0.763376786
|495> H  -1.188775171   0.689993605   1.460876786
|496> H   0.275024829   0.216893605   1.170276786
|497> O   1.331724829   1.952893605  -0.763623214
|498> H   1.263724829   2.889393605  -0.537923214
|499> H   0.461524829   1.585993605  -0.527623214
|500> *
|501>
|502>
|503> $new_job
|504>
|505> # 5h2o.temelso.etal.dset.3h2o-orca.engrad-mp2.augccpvtz-50.to.69
|506> ! MP2 aug-cc-pVTZ EnGrad TightSCF FrozenCore
|507>
|508> %pal
|509>     nprocs 12
|510> end
|511>
|512> %maxcore 8000
|513>
|514> %scf
|515>     ConvForced true
|516> end
|517>
|518> *xyz 0 1
|519> O  -1.493896659  -2.279627153  -0.302650212
|520> H  -1.646696659  -1.338627153  -0.077250212
|521> H  -2.062196659  -2.765327153   0.307649788
|522> O   1.094503341   0.210072847   1.222749788
|523> H   1.287503341   0.841772847   0.506149788
|524> H   1.338003341  -0.667527153   0.857349788
|525> O   0.467803341   2.025972847  -0.932150212
|526> H   0.399803341   2.962472847  -0.706450212
|527> H  -0.402396659   1.659072847  -0.696150212
|528> *
|529>
|530>
|531> $new_job
|532>
|533> # 5h2o.temelso.etal.dset.3h2o-orca.engrad-mp2.augccpvtz-50.to.69
|534> ! MP2 aug-cc-pVTZ EnGrad TightSCF FrozenCore
|535>
|536> %pal
|537>     nprocs 12
|538> end
|539>
|540> %maxcore 8000
|541>
|542> %scf
|543>     ConvForced true
|544> end
|545>
|546> *xyz 0 1
|547> O  -1.512462633  -0.488330092   0.290672279
|548> H  -2.073162633  -0.126830092   0.988172279
|549> H  -0.609362633  -0.599930092   0.697572279
|550> O   1.074037367  -0.679830092   0.918572279
|551> H   1.267037367  -0.048130092   0.201972279
|552> H   1.317537367  -1.557430092   0.553172279
|553> O   0.447337367   1.136069908  -1.236327721
|554> H   0.379337367   2.072569908  -1.010627721
|555> H  -0.422862633   0.769169908  -1.000327721
|556> *
|557>
|558>                          ****END OF INPUT****
 Total Charge           Charge          ....    0
 Multiplicity           Mult            ....    1
 Number of Electrons    NEL             ....   30
MP2 TOTAL ENERGY:     -229.004861333 Eh
FINAL SINGLE POINT ENERGY      -229.004861333139
MP2 TOTAL ENERGY:     -229.005146740 Eh
FINAL SINGLE POINT ENERGY      -229.005146740211
MP2 TOTAL ENERGY:     -228.992225658 Eh
FINAL SINGLE POINT ENERGY      -228.992225657963
MP2 TOTAL ENERGY:     -229.003270298 Eh
FINAL SINGLE POINT ENERGY      -229.003270298489
MP2 TOTAL ENERGY:     -228.994616344 Eh
FINAL SINGLE POINT ENERGY      -228.994616344124
MP2 TOTAL ENERGY:     -228.998584484 Eh
FINAL SINGLE POINT ENERGY      -228.998584484081
FINAL SINGLE POINT ENERGY      -229.004018652897
FINAL SINGLE POINT ENERGY      -228.997449557928
FINAL SINGLE POINT ENERGY      -228.994343095434
FINAL SINGLE POINT ENERGY      -229.010030225797
FINAL SINGLE POINT ENERGY      -229.003794288179
FINAL SINGLE POINT ENERGY      -229.005316409694
FINAL SINGLE POINT ENERGY      -228.990975252998
FINAL SINGLE POINT ENERGY      -229.004139324502
MP2 TOTAL ENERGY:     -228.993262849 Eh
FINAL SINGLE POINT ENERGY      -228.993262849246
MP2 TOTAL ENERGY:     -228.999067942 Eh
FINAL SINGLE POINT ENERGY      -228.999067942265
MP2 TOTAL ENERGY:     -229.003620720 Eh
FINAL SINGLE POINT ENERGY      -229.003620719925
MP2 TOTAL ENERGY:     -228.997354064 Eh
FINAL SINGLE POINT ENERGY      -228.997354063906
MP2 TOTAL ENERGY:     -228.994384160 Eh
FINAL SINGLE POINT ENERGY      -228.994384160483

CARTESIAN COORDINATES (ANGSTROEM)
---------------------------------
  O     -1.512463   -0.488330    0.290672
  H     -2.073163   -0.126830    0.988172
  H     -0.609363   -0.599930    0.697572
  O      1.074037   -0.679830    0.918572
  H      1.267037   -0.048130    0.201972
  H      1.317537   -1.557430    0.553172
  O      0.447337    1.136070   -1.236328
  H      0.379337    2.072570   -1.010628
  H     -0.422863    0.769170   -1.000328

 Multiplicity           Mult            ....    1
 Number of Electrons    NEL             ....   30
 Basis Dimension        Dim             ....  276

ORBITAL ENERGIES
----------------

  NO   OCC          E(Eh)            E(eV)
   0   2.0000     -20.579859      -560.0064
   1   2.0000     -20.570157      -559.7424
   2   2.0000     -20.548572      -559.1551
   3   2.0000      -1.367743       -37.2182
   4   2.0000      -1.351072       -36.7645
   5   2.0000      -1.325688       -36.0738
   6   2.0000      -0.732043       -19.9199
   7   2.0000      -0.715651       -19.4739
   8   2.0000      -0.702159       -19.1067
   9   2.0000      -0.608154       -16.5487
  10   2.0000      -0.593241       -16.1429
  11   2.0000      -0.568895       -15.4804
  12   2.0000      -0.518662       -14.1135
  13   2.0000      -0.509865       -13.8741
  14   2.0000      -0.492586       -13.4039
  15   0.0000       0.026132         0.7111
  16   0.0000       0.041138         1.1194
  17   0.0000       0.045665         1.2426
  18   0.0000       0.060509         1.6465
  19   0.0000       0.069375         1.8878

MULLIKEN ATOMIC CHARGES
-----------------------
   0 O :   -0.530560
   1 H :    0.182835
   2 H :    0.279420
   3 O :   -0.412715
   4 H :    0.283409
   5 H :    0.198282
   6 O :   -0.498686
   7 H :    0.200017
   8 H :    0.297998
Sum of atomic charges:   -0.0000000

LOEWDIN ATOMIC CHARGES
----------------------
   0 O :    1.048574
   1 H :   -0.485435
   2 H :   -0.707902
   3 O :    1.095576
   4 H :   -0.562691
   5 H :   -0.409601
   6 O :    1.069397
   7 H :   -0.471582
   8 H :   -0.576335

  Mayer bond orders larger than 0.100000
B(  0-O ,  1-H ) :   0.9949 B(  0-O ,  2-H ) :   0.8014 B(  2-H ,  3-O ) :   0.1123
B(  3-O ,  4-H ) :   0.8682 B(  3-O ,  5-H ) :   0.9622 B(  6-O ,  7-H ) :   0.9706
B(  6-O ,  8-H ) :   0.8527

MP2 TOTAL ENERGY:     -229.009570829 Eh
FINAL SINGLE POINT ENERGY      -229.009570829265

DIPOLE MOMENT
-------------
                                X             Y             Z
Electronic contribution:      0.20726      -0.13245      -0.09399
Nuclear contribution   :     -0.13260       0.47744       0.40295
                        -----------------------------------------
Total Dipole Moment    :      0.07467       0.34499       0.30896
                        -----------------------------------------
Magnitude (a.u.)       :      0.46909
Magnitude (Debye)      :      1.19234

Rotational constants in cm-1:     0.253087     0.198650     0.114365
Rotational constants in MHz :  7587.371376  5955.368142  3428.586665

                             ****ORCA TERMINATED NORMALLY****
TOTAL RUN TIME: 0 days 0 hours 29 minutes 19 seconds 363 msec
