                         Program Version 4.2.0 -  RELEASE  -
|  1> # 48mecn.sphere.gfn2.md.500k.prod1.3mecn.cm.17.dset.1mecn-orca.engrad-mp2.def2tzvp-12600.to.12637
|  2> ! MP2 def2-TZVP EnGrad TightSCF FrozenCore
|  3>
|  4> %pal
|  5>     nprocs 12
|  6> end
|  7>
|  8> %maxcore 8000
|  9>
| 10> %scf
| 11>     ConvForced true
| 12> end
| 13>
| 14> *xyz 0 1
| 15> C   0.775159414  -0.643568163  -0.743475632
| 16> H   0.196494356  -1.358560078  -1.387014388
| 17> H   1.716507880  -1.201810031  -0.388188073
| 18> H   1.135992908   0.205954356  -1.377091925
| 19> C  -0.103710630   0.030383998   0.150275825
| 20> N  -0.795115571   0.695178637   0.735455129
| 21> *
| 22>
| 23>
| 24> $new_job
| 25>
| 26> # 48mecn.sphere.gfn2.md.500k.prod1.3mecn.cm.17.dset.1mecn-orca.engrad-mp2.def2tzvp-12600.to.12637
| 27> ! MP2 def2-TZVP EnGrad TightSCF FrozenCore
| 28>
| 29> %pal
| 30>     nprocs 12
| 31> end
| 32>
| 33> %maxcore 8000
| 34>
| 35> %scf
| 36>     ConvForced true
| 37> end
| 38>
| 39> *xyz 0 1
| 40> C   0.806746019  -1.022358877   0.001539128
| 41> H   0.109010278  -1.673739780  -0.629696159
| 42> H   0.818779452  -1.431856546   0.977515203
| 43> H   1.737451278  -0.759333749  -0.389239893
| 44> C  -0.057005861   0.157352888  -0.021916536
| 45> N  -0.834632086   1.019789272   0.020452757
| 46> *
| 47>
| 48>
| 49> $new_job
| 50>
| 51> # 48mecn.sphere.gfn2.md.500k.prod1.3mecn.cm.17.dset.1mecn-orca.engrad-mp2.def2tzvp-12600.to.12637
| 52> ! MP2 def2-TZVP EnGrad TightSCF FrozenCore
| 53>
| 54> %pal
| 55>     nprocs 12
| 56> end
| 57>
| 58> %maxcore 8000
| 59>
| 60> %scf
| 61>     ConvForced true
| 62> end
| 63>
| 64> *xyz 0 1
| 65> C   1.136282801  -0.532258416   0.116112882
| 66> H   1.819172515  -0.113516845  -0.637995858
| 67> H   1.031629308  -1.556776225  -0.066051422
| 68> H   1.413218258  -0.321370272   1.168167700
| 69> C  -0.102464931   0.124668726   0.007483995
| 70> N  -1.193251177   0.492792748  -0.139372286
| 71> *
| 72>
| 73>
| 74> $new_job
| 75>
| 76> # 48mecn.sphere.gfn2.md.500k.prod1.3mecn.cm.17.dset.1mecn-orca.engrad-mp2.def2tzvp-12600.to.12637
| 77> ! MP2 def2-TZVP EnGrad TightSCF FrozenCore
| 78>
| 79> %pal
| 80>     nprocs 12
| 81> end
| 82>
| 83> %maxcore 8000
| 84>
| 85> %scf
| 86>     ConvForced true
| 87> end
| 88>
| 89> *xyz 0 1
| 90> C   0.426201456  -1.197799183  -0.295649717
| 91> H  -0.406357591  -1.745372418  -0.793447918
| 92> H   0.823690224  -1.897180744   0.384815584
| 93> H   1.150180737  -0.875885039  -0.958141553
| 94> C  -0.049498364   0.160503415   0.016293148
| 95> N  -0.435789571   1.214540037   0.337876964
| 96> *
| 97>
| 98>
| 99> $new_job
|100>
|101> # 48mecn.sphere.gfn2.md.500k.prod1.3mecn.cm.17.dset.1mecn-orca.engrad-mp2.def2tzvp-12600.to.12637
|102> ! MP2 def2-TZVP EnGrad TightSCF FrozenCore
|103>
|104> %pal
|105>     nprocs 12
|106> end
|107>
|108> %maxcore 8000
|109>
|110> %scf
|111>     ConvForced true
|112> end
|113>
|114> *xyz 0 1
|115> C   0.888644009   0.122715894  -0.895303594
|116> H   1.148890784  -0.713094447  -1.530826113
|117> H   1.863385041   0.631700717  -0.500334385
|118> H   0.530479659   0.872461296  -1.606337472
|119> C  -0.075036107   0.016788254   0.159195754
|120> N  -0.952536525  -0.176537387   0.892902521
|121> *
|122>
|123>
|124> $new_job
|125>
|126> # 48mecn.sphere.gfn2.md.500k.prod1.3mecn.cm.17.dset.1mecn-orca.engrad-mp2.def2tzvp-12600.to.12637
|127> ! MP2 def2-TZVP EnGrad TightSCF FrozenCore
|128>
|129> %pal
|130>     nprocs 12
|131> end
|132>
|133> %maxcore 8000
|134>
|135> %scf
|136>     ConvForced true
|137> end
|138>
|139> *xyz 0 1
|140> C  -0.800778391   0.922753682  -0.457473639
|141> H  -1.514965508   1.093166373   0.316408631
|142> H  -0.949777700   0.801453247  -1.591333818
|143> H  -0.105791284   1.742332771  -0.411803961
|144> C   0.094972596  -0.111408199   0.037527978
|145> N   0.790146579  -0.957374635   0.481445487
|146> *
|147>
|148>
|149> $new_job
|150>
|151> # 48mecn.sphere.gfn2.md.500k.prod1.3mecn.cm.17.dset.1mecn-orca.engrad-mp2.def2tzvp-12600.to.12637
|152> ! MP2 def2-TZVP EnGrad TightSCF FrozenCore
|153>
|154> %pal
|155>     nprocs 12
|156> end
|157>
|158> %maxcore 8000
|159>
|160> %scf
|161>     ConvForced true
|162> end
|163>
|164> *xyz 0 1
|165> C  -0.103045427  -1.268251134   0.050431884
|166> H  -1.151253612  -1.359048606  -0.010807394
|167> H   0.190726991  -1.634545119   1.060704184
|168> H   0.334508203  -1.826858754  -0.802841317
|169> C   0.078346646   0.152797516  -0.059811831
|170> N   0.066223076   1.303286890  -0.009734314
|171> *
|172>
|173>
|174> $new_job
|175>
|176> # 48mecn.sphere.gfn2.md.500k.prod1.3mecn.cm.17.dset.1mecn-orca.engrad-mp2.def2tzvp-12600.to.12637
|177> ! MP2 def2-TZVP EnGrad TightSCF FrozenCore
|178>
|179> %pal
|180>     nprocs 12
|181> end
|182>
|183> %maxcore 8000
|184>
|185> %scf
|186>     ConvForced true
|187> end
|188>
|189> *xyz 0 1
|190> C   0.004250502  -0.868174641  -0.906261009
|191> H   0.785685704  -0.678602217  -1.690607727
|192> H  -1.024005499  -0.768523656  -1.555652673
|193> H   0.310915439  -1.955793961  -0.607271465
|194> C   0.019323653   0.103616487   0.101674577
|195> N  -0.025436958   0.900417618   0.967163279
|196> *
|197>
|198>
|199> $new_job
|200>
|201> # 48mecn.sphere.gfn2.md.500k.prod1.3mecn.cm.17.dset.1mecn-orca.engrad-mp2.def2tzvp-12600.to.12637
|202> ! MP2 def2-TZVP EnGrad TightSCF FrozenCore
|203>
|204> %pal
|205>     nprocs 12
|206> end
|207>
|208> %maxcore 8000
|209>
|210> %scf
|211>     ConvForced true
|212> end
|213>
|214> *xyz 0 1
|215> C   0.892595035  -0.877432850   0.248265679
|216> H   0.267000094  -1.777525081   0.614970568
|217> H   1.670655108  -0.632056843   0.900978189
|218> H   1.352222922  -1.167412942  -0.683892620
|219> C  -0.051674711   0.204957816  -0.014912463
|220> N  -0.957759221   0.833988009  -0.259956194
|221> *
|222>
|223>
|224> $new_job
|225>
|226> # 48mecn.sphere.gfn2.md.500k.prod1.3mecn.cm.17.dset.1mecn-orca.engrad-mp2.def2tzvp-12600.to.12637
|227> ! MP2 def2-TZVP EnGrad TightSCF FrozenCore
|228>
|229> %pal
|230>     nprocs 12
|231> end
|232>
|233> %maxcore 8000
|234>
|235> %scf
|236>     ConvForced true
|237> end
|238>
|239> *xyz 0 1
|240> C  -0.896754899   0.846794717  -0.176746152
|241> H  -0.717071635   1.823007494   0.349929442
|242> H  -1.840975091   0.491895059   0.193262218
|243> H  -1.119760773   0.997594020  -1.200418713
|244> C   0.112119835  -0.083395821   0.086058241
|245> N   0.937411944  -0.892917176   0.125050084
|246> *
|247>
|248>
|249> $new_job
|250>
|251> # 48mecn.sphere.gfn2.md.500k.prod1.3mecn.cm.17.dset.1mecn-orca.engrad-mp2.def2tzvp-12600.to.12637
|252> ! MP2 def2-TZVP EnGrad TightSCF FrozenCore
|253>
|254> %pal
|255>     nprocs 12
|256> end
|257>
|258> %maxcore 8000
|259>
|260> %scf
|261>     ConvForced true
|262> end
|263>
|264> *xyz 0 1
|265> C  -1.253174957  -0.306296178  -0.054848092
|266> H  -1.954531891   0.537233001  -0.020741937
|267> H  -1.397874808  -0.681170417   0.971046286
|268> H  -1.459438534  -0.842584563  -0.960888750
|269> C   0.153766317   0.098079091   0.087814473
|270> N   1.288910030   0.249518274  -0.027504915
|271> *
|272>
|273>
|274> $new_job
|275>
|276> # 48mecn.sphere.gfn2.md.500k.prod1.3mecn.cm.17.dset.1mecn-orca.engrad-mp2.def2tzvp-12600.to.12637
|277> ! MP2 def2-TZVP EnGrad TightSCF FrozenCore
|278>
|279> %pal
|280>     nprocs 12
|281> end
|282>
|283> %maxcore 8000
|284>
|285> %scf
|286>     ConvForced true
|287> end
|288>
|289> *xyz 0 1
|290> C  -0.449042410  -0.986773937  -0.621363223
|291> H   0.395083058  -1.170752135  -1.468199713
|292> H  -1.385435397  -0.794383298  -1.159985652
|293> H  -0.510392424  -2.011092974  -0.094436051
|294> C  -0.028445752   0.158326223   0.100771568
|295> N   0.517401825   0.996451466   0.642281031
|296> *
|297>
|298>
|299> $new_job
|300>
|301> # 48mecn.sphere.gfn2.md.500k.prod1.3mecn.cm.17.dset.1mecn-orca.engrad-mp2.def2tzvp-12600.to.12637
|302> ! MP2 def2-TZVP EnGrad TightSCF FrozenCore
|303>
|304> %pal
|305>     nprocs 12
|306> end
|307>
|308> %maxcore 8000
|309>
|310> %scf
|311>     ConvForced true
|312> end
|313>
|314> *xyz 0 1
|315> C  -0.647850217  -1.140254578   0.124142284
|316> H  -0.407959052  -1.705441979   1.025989687
|317> H  -0.301400004  -1.853456669  -0.739551785
|318> H  -1.788821365  -0.951804181  -0.007067814
|319> C   0.080172628   0.161597513   0.021392664
|320> N   0.666504379   1.163704572  -0.144888945
|321> *
|322>
|323>
|324> $new_job
|325>
|326> # 48mecn.sphere.gfn2.md.500k.prod1.3mecn.cm.17.dset.1mecn-orca.engrad-mp2.def2tzvp-12600.to.12637
|327> ! MP2 def2-TZVP EnGrad TightSCF FrozenCore
|328>
|329> %pal
|330>     nprocs 12
|331> end
|332>
|333> %maxcore 8000
|334>
|335> %scf
|336>     ConvForced true
|337> end
|338>
|339> *xyz 0 1
|340> C   0.680747731   0.700137229   0.842954136
|341> H  -0.218568797   1.040828394   1.459521474
|342> H   1.139197158   1.487295011   0.371925319
|343> H   1.448114299   0.154554129   1.265143207
|344> C  -0.091652440  -0.091416440  -0.107919584
|345> N  -0.675554899  -0.714971832  -0.853060931
|346> *
|347>
|348>
|349> $new_job
|350>
|351> # 48mecn.sphere.gfn2.md.500k.prod1.3mecn.cm.17.dset.1mecn-orca.engrad-mp2.def2tzvp-12600.to.12637
|352> ! MP2 def2-TZVP EnGrad TightSCF FrozenCore
|353>
|354> %pal
|355>     nprocs 12
|356> end
|357>
|358> %maxcore 8000
|359>
|360> %scf
|361>     ConvForced true
|362> end
|363>
|364> *xyz 0 1
|365> C  -0.731517948   0.996009499   0.229019310
|366> H  -1.044796359   0.921681810   1.343514608
|367> H  -1.550677491   0.803530160  -0.338482693
|368> H  -0.300839428   1.982065058   0.010771553
|369> C   0.135910398  -0.101580536  -0.014739136
|370> N   0.719100357  -1.033673546  -0.256823940
|371> *
|372>
|373>
|374> $new_job
|375>
|376> # 48mecn.sphere.gfn2.md.500k.prod1.3mecn.cm.17.dset.1mecn-orca.engrad-mp2.def2tzvp-12600.to.12637
|377> ! MP2 def2-TZVP EnGrad TightSCF FrozenCore
|378>
|379> %pal
|380>     nprocs 12
|381> end
|382>
|383> %maxcore 8000
|384>
|385> %scf
|386>     ConvForced true
|387> end
|388>
|389> *xyz 0 1
|390> C   0.547410094  -0.857393443  -0.697615479
|391> H  -0.006335945  -1.507919843  -1.377108097
|392> H   1.383624783  -1.400688797  -0.214992940
|393> H   1.143771639  -0.447457057  -1.504199345
|394> C  -0.108537085   0.057804280   0.127292209
|395> N  -0.557709201   0.927083008   0.711810912
|396> *
|397>
|398>
|399> $new_job
|400>
|549> $new_job
|550>
|551> # 48mecn.sphere.gfn2.md.500k.prod1.3mecn.cm.17.dset.1mecn-orca.engrad-mp2.def2tzvp-12600.to.12637
|552> ! MP2 def2-TZVP EnGrad TightSCF FrozenCore
|553>
|554> %pal
|555>     nprocs 12
|556> end
|557>
|558> %maxcore 8000
|559>
|560> %scf
|561>     ConvForced true
|562> end
|563>
|564> *xyz 0 1
|565> C  -0.412139609   0.809527531  -0.854145248
|566> H   0.405275819   1.148645563  -1.442690292
|567> H  -1.120364601   1.667023896  -0.484039513
|568> H  -0.944227167   0.053694284  -1.474692484
|569> C   0.083652707  -0.034729414   0.139219732
|570> N   0.401053036  -0.870805410   0.857753111
|571> *
|572>
|573>
|574> $new_job
|575>
|576> # 48mecn.sphere.gfn2.md.500k.prod1.3mecn.cm.17.dset.1mecn-orca.engrad-mp2.def2tzvp-12600.to.12637
|577> ! MP2 def2-TZVP EnGrad TightSCF FrozenCore
|578>
|579> %pal
|580>     nprocs 12
|581> end
|582>
|583> %maxcore 8000
|584>
|585> %scf
|586>     ConvForced true
|587> end
|588>
|589> *xyz 0 1
|590> C  -1.187808436   0.341302873  -0.230492424
|591> H  -1.256206294   1.204176297  -0.837052347
|592> H  -1.838711375   0.539530339   0.620350660
|593> H  -1.670886894  -0.607350916  -0.799799786
|594> C   0.139860396   0.000508050   0.107492461
|595> N   1.241473041  -0.374847639   0.178607339
|596> *
|597>
|598>
|599> $new_job
|600>
|601> # 48mecn.sphere.gfn2.md.500k.prod1.3mecn.cm.17.dset.1mecn-orca.engrad-mp2.def2tzvp-12600.to.12637
|602> ! MP2 def2-TZVP EnGrad TightSCF FrozenCore
|603>
|604> %pal
|605>     nprocs 12
|606> end
|607>
|608> %maxcore 8000
|609>
|610> %scf
|611>     ConvForced true
|612> end
|613>
|614> *xyz 0 1
|615> C   0.581139283  -0.981977553  -0.523463078
|616> H   0.078600432  -1.030049489  -1.491693224
|617> H   0.243116696  -1.964388286  -0.124179261
|618> H   1.682472629  -0.937810724  -0.659978582
|619> C  -0.060544965   0.123835193   0.065215000
|620> N  -0.590588188   1.018748091   0.556677887
|621> *
|622>
|623>
|624> $new_job
|625>
|626> # 48mecn.sphere.gfn2.md.500k.prod1.3mecn.cm.17.dset.1mecn-orca.engrad-mp2.def2tzvp-12600.to.12637
|627> ! MP2 def2-TZVP EnGrad TightSCF FrozenCore
|628>
|629> %pal
|630>     nprocs 12
|631> end
|632>
|633> %maxcore 8000
|634>
|635> %scf
|636>     ConvForced true
|637> end
|638>
|639> *xyz 0 1
|640> C  -0.547006795  -0.045718267   1.137597275
|641> H  -1.202105794   0.882290944   1.348145969
|642> H   0.163677146  -0.088784994   1.997056371
|643> H  -1.037261773  -0.991151480   1.217368405
|644> C   0.130725682  -0.002084870  -0.108716255
|645> N   0.506291289   0.055209759  -1.210500520
|646> *
|647>
|648>
|649> $new_job
|650>
|651> # 48mecn.sphere.gfn2.md.500k.prod1.3mecn.cm.17.dset.1mecn-orca.engrad-mp2.def2tzvp-12600.to.12637
|652> ! MP2 def2-TZVP EnGrad TightSCF FrozenCore
|653>
|654> %pal
|655>     nprocs 12
|656> end
|657>
|658> %maxcore 8000
|659>
|660> %scf
|661>     ConvForced true
|662> end
|663>
|664> *xyz 0 1
|665> C  -0.320451714  -1.254988142   0.022588714
|666> H  -1.317287251  -1.601404332  -0.188642132
|667> H  -0.108051974  -1.557604071   1.099879555
|668> H   0.404956938  -1.949408482  -0.506668709
|669> C   0.014537722   0.177568749  -0.015215088
|670> N   0.335723433   1.291395652  -0.035433357
|671> *
|672>
|673>
|674> $new_job
|675>
|676> # 48mecn.sphere.gfn2.md.500k.prod1.3mecn.cm.17.dset.1mecn-orca.engrad-mp2.def2tzvp-12600.to.12637
|677> ! MP2 def2-TZVP EnGrad TightSCF FrozenCore
|678>
|679> %pal
|680>     nprocs 12
|681> end
|682>
|683> %maxcore 8000
|684>
|685> %scf
|686>     ConvForced true
|687> end
|688>
|689> *xyz 0 1
|690> C   0.642307930  -1.011545472  -0.379415326
|691> H   0.126984825  -1.327007915  -1.248826799
|692> H   0.780142994  -1.738489340   0.394307665
|693> H   1.691487912  -0.699021722  -0.577191399
|694> C  -0.119239888   0.077091062   0.112826223
|695> N  -0.635481478   1.072111629   0.331602245
|696> *
|697>
|698>
|699> $new_job
|700>
|701> # 48mecn.sphere.gfn2.md.500k.prod1.3mecn.cm.17.dset.1mecn-orca.engrad-mp2.def2tzvp-12600.to.12637
|702> ! MP2 def2-TZVP EnGrad TightSCF FrozenCore
|703>
|704> %pal
|705>     nprocs 12
|706> end
|707>
|708> %maxcore 8000
|709>
|710> %scf
|711>     ConvForced true
|712> end
|713>
|714> *xyz 0 1
|715> C   0.438234210   0.468457451   1.130475428
|716> H   0.082785045   0.117303005   2.022716083
|717> H   0.118799908   1.445289094   1.138669250
|718> H   1.485278308   0.384135557   0.984160734
|719> C  -0.101424074  -0.070078679  -0.134627262
|720> N  -0.410171848  -0.481661616  -1.152169774
|721> *
|722>
|723>
|724> $new_job
|725>
|726> # 48mecn.sphere.gfn2.md.500k.prod1.3mecn.cm.17.dset.1mecn-orca.engrad-mp2.def2tzvp-12600.to.12637
|727> ! MP2 def2-TZVP EnGrad TightSCF FrozenCore
|728>
|729> %pal
|730>     nprocs 12
|731> end
|732>
|733> %maxcore 8000
|734>
|735> %scf
|736>     ConvForced true
|737> end
|738>
|739> *xyz 0 1
|740> C  -0.206910188   1.217791974   0.111417350
|741> H  -1.210570872   1.458260815  -0.313390732
|742> H   0.516871501   1.662684349  -0.698050650
|743> H  -0.062037377   1.806807527   1.013613722
|744> C  -0.001660414  -0.149369155   0.017679393
|745> N   0.233215118  -1.270681891  -0.110848347
|746> *
|747>
|748>
|749> $new_job
|750>
|751> # 48mecn.sphere.gfn2.md.500k.prod1.3mecn.cm.17.dset.1mecn-orca.engrad-mp2.def2tzvp-12600.to.12637
|752> ! MP2 def2-TZVP EnGrad TightSCF FrozenCore
|753>
|754> %pal
|755>     nprocs 12
|756> end
|757>
|758> %maxcore 8000
|759>
|760> %scf
|761>     ConvForced true
|762> end
|763>
|764> *xyz 0 1
|765> C  -0.735449062   0.982351561   0.288910168
|766> H  -1.013344157   1.127963506   1.332349905
|767> H  -1.613163209   0.812317781  -0.478603366
|768> H  -0.271716904   1.921135055   0.034061580
|769> C   0.117329052  -0.088035200  -0.053706309
|770> N   0.738540829  -1.044668171  -0.265554663
|771> *
|772>
|773>
|774> $new_job
|775>
|776> # 48mecn.sphere.gfn2.md.500k.prod1.3mecn.cm.17.dset.1mecn-orca.engrad-mp2.def2tzvp-12600.to.12637
|777> ! MP2 def2-TZVP EnGrad TightSCF FrozenCore
|778>
|779> %pal
|780>     nprocs 12
|781> end
|782>
|783> %maxcore 8000
|784>
|785> %scf
|786>     ConvForced true
|787> end
|788>
|789> *xyz 0 1
|790> C   0.081042832   0.946227826   0.815923842
|791> H  -0.748307707   1.663574431   0.600235906
|792> H   1.018906821   1.563242888   0.700317983
|793> H  -0.240965562   0.564534775   1.824832572
|794> C   0.051200997  -0.148666044  -0.070838955
|795> N  -0.115522754  -0.956665922  -0.863750503
|796> *
|797>
|798>
|799> $new_job
|800>
|801> # 48mecn.sphere.gfn2.md.500k.prod1.3mecn.cm.17.dset.1mecn-orca.engrad-mp2.def2tzvp-12600.to.12637
|802> ! MP2 def2-TZVP EnGrad TightSCF FrozenCore
|803>
|804> %pal
|805>     nprocs 12
|806> end
|807>
|808> %maxcore 8000
|809>
|810> %scf
|811>     ConvForced true
|812> end
|813>
|814> *xyz 0 1
|815> C  -0.469219816   1.148630510   0.454609825
|816> H   0.273455333   1.617625014   1.127804248
|817> H  -1.348056667   0.723237636   1.016543418
|818> H  -0.587245456   1.873097513  -0.383625282
|819> C   0.093279834  -0.117904220  -0.117071559
|820> N   0.441923065  -1.186998261  -0.416110745
|821> *
|822>
|823>
|824> $new_job
|825>
|826> # 48mecn.sphere.gfn2.md.500k.prod1.3mecn.cm.17.dset.1mecn-orca.engrad-mp2.def2tzvp-12600.to.12637
|827> ! MP2 def2-TZVP EnGrad TightSCF FrozenCore
|828>
|829> %pal
|830>     nprocs 12
|831> end
|832>
|833> %maxcore 8000
|834>
|835> %scf
|836>     ConvForced true
|837> end
|838>
|839> *xyz 0 1
|840> C  -0.318731735  -0.796391192  -0.916974379
|841> H   0.109515085  -0.746322000  -1.949274811
|842> H  -1.398539083  -0.677693130  -0.854379434
|843> H  -0.169542603  -1.781505032  -0.662496271
|844> C   0.107917093   0.063629183   0.123795280
|845> N   0.285711726   0.858950501   0.929508007
|846> *
|847>
|848>
|849> $new_job
|850>
|851> # 48mecn.sphere.gfn2.md.500k.prod1.3mecn.cm.17.dset.1mecn-orca.engrad-mp2.def2tzvp-12600.to.12637
|852> ! MP2 def2-TZVP EnGrad TightSCF FrozenCore
|853>
|854> %pal
|855>     nprocs 12
|856> end
|857>
|858> %maxcore 8000
|859>
|860> %scf
|861>     ConvForced true
|862> end
|863>
|864> *xyz 0 1
|865> C   0.852674085   0.939259316   0.303114511
|866> H   0.175003074   1.693688353   0.573880898
|867> H   1.273911804   1.210395406  -0.673110653
|868> H   1.460062074   0.849317115   1.265994197
|869> C  -0.130280102  -0.094493112  -0.060528882
|870> N  -0.828722673  -0.994409834  -0.291956498
|871> *
|872>
|873>
|874> $new_job
|875>
|876> # 48mecn.sphere.gfn2.md.500k.prod1.3mecn.cm.17.dset.1mecn-orca.engrad-mp2.def2tzvp-12600.to.12637
|877> ! MP2 def2-TZVP EnGrad TightSCF FrozenCore
|878>
|879> %pal
|880>     nprocs 12
|881> end
|882>
|883> %maxcore 8000
|884>
|885> %scf
|886>     ConvForced true
|887> end
|888>
|889> *xyz 0 1
|890> C   0.821891701   0.876908916  -0.319708111
|891> H   1.268157439   1.283594447   0.544429355
|892> H   0.199199605   1.861036084  -0.499121952
|893> H   1.606942931   0.709188299  -1.039176702
|894> C  -0.075524265  -0.095223106   0.121210098
|895> N  -0.861174250  -0.947548138   0.241713483
|896> *
|897>
|898>
|899> $new_job
|900>
|901> # 48mecn.sphere.gfn2.md.500k.prod1.3mecn.cm.17.dset.1mecn-orca.engrad-mp2.def2tzvp-12600.to.12637
|902> ! MP2 def2-TZVP EnGrad TightSCF FrozenCore
|903>
|904> %pal
|905>     nprocs 12
|906> end
|907>
|908> %maxcore 8000
|909>
|910> %scf
|911>     ConvForced true
|912> end
|913>
|914> *xyz 0 1
|915> C   0.563927660  -0.831090042  -0.813126087
|916> H  -0.136531026  -1.808829290  -0.849897707
|917> H   1.423653291  -1.072320307  -0.306652530
|918> H   0.746536895  -0.426881093  -1.818524963
|919> C  -0.127782415   0.052636734   0.116225802
|920> N  -0.520299104   0.905504008   0.811619624
|921> *
|922>
|923>
|924> $new_job
|925>
|926> # 48mecn.sphere.gfn2.md.500k.prod1.3mecn.cm.17.dset.1mecn-orca.engrad-mp2.def2tzvp-12600.to.12637
|927> ! MP2 def2-TZVP EnGrad TightSCF FrozenCore
|928>
|929> %pal
|930>     nprocs 12
|931> end
|932>
|933> %maxcore 8000
|934>
|935> %scf
|936>     ConvForced true
|937> end
|938>
|939> *xyz 0 1
|940> C  -0.507622396  -0.975037929  -0.697745142
|941> H  -1.069807343  -0.273018935  -1.497203031
|942> H  -1.089670548  -1.558880239   0.029704655
|943> H   0.293660198  -1.704250439  -1.058169325
|944> C   0.067306793   0.145552851   0.062178754
|945> N   0.511797794   0.965674837   0.726692457
|946> *
|947>
|948>                          ****END OF INPUT****
 Total Charge           Charge          ....    0
 Multiplicity           Mult            ....    1
 Number of Electrons    NEL             ....   22
MP2 TOTAL ENERGY:     -132.468925620 Eh
FINAL SINGLE POINT ENERGY      -132.468925619994
MP2 TOTAL ENERGY:     -132.471500240 Eh
FINAL SINGLE POINT ENERGY      -132.471500239834
MP2 TOTAL ENERGY:     -132.474970053 Eh
FINAL SINGLE POINT ENERGY      -132.474970052865
MP2 TOTAL ENERGY:     -132.465384325 Eh
FINAL SINGLE POINT ENERGY      -132.465384325008
MP2 TOTAL ENERGY:     -132.473278664 Eh
FINAL SINGLE POINT ENERGY      -132.473278664428
MP2 TOTAL ENERGY:     -132.467083049 Eh
FINAL SINGLE POINT ENERGY      -132.467083049354
FINAL SINGLE POINT ENERGY      -132.476737528715
FINAL SINGLE POINT ENERGY      -132.463956727327
FINAL SINGLE POINT ENERGY      -132.472990691942
FINAL SINGLE POINT ENERGY      -132.475930275563
FINAL SINGLE POINT ENERGY      -132.468506617253
FINAL SINGLE POINT ENERGY      -132.469926183486
FINAL SINGLE POINT ENERGY      -132.470982275709
FINAL SINGLE POINT ENERGY      -132.472155550864
MP2 TOTAL ENERGY:     -132.473792218 Eh
FINAL SINGLE POINT ENERGY      -132.473792218275
MP2 TOTAL ENERGY:     -132.469388118 Eh
FINAL SINGLE POINT ENERGY      -132.469388117528
MP2 TOTAL ENERGY:     -132.465083958 Eh
FINAL SINGLE POINT ENERGY      -132.465083958380
MP2 TOTAL ENERGY:     -132.462137482 Eh
FINAL SINGLE POINT ENERGY      -132.462137481698
MP2 TOTAL ENERGY:     -132.468776838 Eh
FINAL SINGLE POINT ENERGY      -132.468776838046

CARTESIAN COORDINATES (ANGSTROEM)
---------------------------------
  C     -0.507622   -0.975038   -0.697745
  H     -1.069807   -0.273019   -1.497203
  H     -1.089671   -1.558880    0.029705
  H      0.293660   -1.704250   -1.058169
  C      0.067307    0.145553    0.062179
  N      0.511798    0.965675    0.726692

 Multiplicity           Mult            ....    1
 Number of Electrons    NEL             ....   22
 Basis Dimension        Dim             ....  111

ORBITAL ENERGIES
----------------

  NO   OCC          E(Eh)            E(eV)
   0   2.0000     -15.563291      -423.4987
   1   2.0000     -11.305952      -307.6506
   2   2.0000     -11.271791      -306.7210
   3   2.0000      -1.222390       -33.2629
   4   2.0000      -1.030121       -28.0310
   5   2.0000      -0.686048       -18.6683
   6   2.0000      -0.622917       -16.9504
   7   2.0000      -0.611505       -16.6399
   8   2.0000      -0.549875       -14.9629
   9   2.0000      -0.460978       -12.5438
  10   2.0000      -0.459052       -12.4914
  11   0.0000       0.113693         3.0937
  12   0.0000       0.165520         4.5040
  13   0.0000       0.172700         4.6994
  14   0.0000       0.209577         5.7029
  15   0.0000       0.223851         6.0913

MULLIKEN ATOMIC CHARGES
-----------------------
   0 C :   -0.298475
   1 H :    0.180695
   2 H :    0.173632
   3 H :    0.176796
   4 C :   -0.167687
   5 N :   -0.064961
Sum of atomic charges:   -0.0000000

LOEWDIN ATOMIC CHARGES
----------------------
   0 C :   -0.298590
   1 H :    0.191381
   2 H :    0.153062
   3 H :    0.159254
   4 C :   -0.251185
   5 N :    0.046078

  Mayer bond orders larger than 0.100000
B(  0-C ,  1-H ) :   0.8970 B(  0-C ,  2-H ) :   0.9183 B(  0-C ,  3-H ) :   0.9132
B(  0-C ,  4-C ) :   0.8953 B(  4-C ,  5-N ) :   2.8578

MP2 TOTAL ENERGY:     -132.461776009 Eh
FINAL SINGLE POINT ENERGY      -132.461776008697

DIPOLE MOMENT
-------------
                                X             Y             Z
Electronic contribution:      1.17545       2.18599       1.56220
Nuclear contribution   :     -1.74761      -3.31213      -2.36546
                        -----------------------------------------
Total Dipole Moment    :     -0.57215      -1.12614      -0.80326
                        -----------------------------------------
Magnitude (a.u.)       :      1.49693
Magnitude (Debye)      :      3.80489

Rotational constants in cm-1:     4.505833     0.312490     0.308979
Rotational constants in MHz : 135081.467361  9368.214865  9262.948771

                             ****ORCA TERMINATED NORMALLY****
TOTAL RUN TIME: 0 days 0 hours 6 minutes 41 seconds 715 msec
