                         Program Version 4.2.0 -  RELEASE  -
|  1> # 4h2o.temelso.etal.dset.3h2o.dset-orca.engrad-mp2.def2tzvp
|  2> ! MP2 def2-TZVP EnGrad TightSCF FrozenCore
|  3>
|  4> %pal
|  5>     nprocs 12
|  6> end
|  7>
|  8> %maxcore 8000
|  9>
| 10> %scf
| 11>     ConvForced true
| 12> end
| 13>
| 14> *xyz 0 1
| 15> O  -1.775038926  -0.918892747  -0.364922679
| 16> H  -2.193238926  -1.133492747  -1.207722679
| 17> H  -1.938238926   0.044607253  -0.241422679
| 18> O   0.950361074  -0.880492747  -0.009522679
| 19> H  -0.007238926  -1.019292747  -0.194222679
| 20> H   1.162261074  -1.517592747   0.683677321
| 21> O   0.854161074   1.832007253   0.424477321
| 22> H   1.012361074   0.864107253   0.332377321
| 23> H   1.496061074   2.243807253  -0.166922679
| 24> *
| 25>
| 26>
| 27> $new_job
| 28>
| 29> # 4h2o.temelso.etal.dset.3h2o.dset-orca.engrad-mp2.def2tzvp
| 30> ! MP2 def2-TZVP EnGrad TightSCF FrozenCore
| 31>
| 32> %pal
| 33>     nprocs 12
| 34> end
| 35>
| 36> %maxcore 8000
| 37>
| 38> %scf
| 39>     ConvForced true
| 40> end
| 41>
| 42> *xyz 0 1
| 43> O  -0.868944166  -0.933924023  -0.227916621
| 44> H  -1.287144166  -1.148524023  -1.070716621
| 45> H  -1.032144166   0.029575977  -0.104416621
| 46> O   1.856455834  -0.895524023   0.127483379
| 47> H   0.898855834  -1.034324023  -0.057216621
| 48> H   2.068355834  -1.532624023   0.820683379
| 49> O  -0.942744166   1.798375977   0.062183379
| 50> H   0.019655834   1.941375977   0.215883379
| 51> H  -1.378244166   2.237775977   0.802983379
| 52> *
| 53>
| 54>
| 55> $new_job
| 56>
| 57> # 4h2o.temelso.etal.dset.3h2o.dset-orca.engrad-mp2.def2tzvp
| 58> ! MP2 def2-TZVP EnGrad TightSCF FrozenCore
| 59>
| 60> %pal
| 61>     nprocs 12
| 62> end
| 63>
| 64> %maxcore 8000
| 65>
| 66> %scf
| 67>     ConvForced true
| 68> end
| 69>
| 70> *xyz 0 1
| 71> O  -0.865704295  -1.842189622  -0.350354319
| 72> H  -1.283904295  -2.056789622  -1.193154319
| 73> H  -1.028904295  -0.878689622  -0.226854319
| 74> O   1.763495705   0.908710378   0.439045681
| 75> H   1.921695705  -0.059189622   0.346945681
| 76> H   2.405395705   1.320510378  -0.152354319
| 77> O  -0.939504295   0.890110378  -0.060254319
| 78> H   0.022895705   1.033110378   0.093445681
| 79> H  -1.375004295   1.329510378   0.680545681
| 80> *
| 81>
| 82>
| 83> $new_job
| 84>
| 85> # 4h2o.temelso.etal.dset.3h2o.dset-orca.engrad-mp2.def2tzvp
| 86> ! MP2 def2-TZVP EnGrad TightSCF FrozenCore
| 87>
| 88> %pal
| 89>     nprocs 12
| 90> end
| 91>
| 92> %maxcore 8000
| 93>
| 94> %scf
| 95>     ConvForced true
| 96> end
| 97>
| 98> *xyz 0 1
| 99> O   0.954292981  -1.788154445  -0.136317570
|100> H  -0.003307019  -1.926954445  -0.321017570
|101> H   1.166192981  -2.425254445   0.556882430
|102> O   0.858092981   0.924345555   0.297682430
|103> H   1.016292981  -0.043554445   0.205582430
|104> H   1.499992981   1.336145555  -0.293717570
|105> O  -1.844907019   0.905745555  -0.201617570
|106> H  -0.882507019   1.048745555  -0.047917570
|107> H  -2.280407019   1.345145555   0.539182430
|108> *
|109>
|110>
|111> $new_job
|112>
|113> # 4h2o.temelso.etal.dset.3h2o.dset-orca.engrad-mp2.def2tzvp
|114> ! MP2 def2-TZVP EnGrad TightSCF FrozenCore
|115>
|116> %pal
|117>     nprocs 12
|118> end
|119>
|120> %maxcore 8000
|121>
|122> %scf
|123>     ConvForced true
|124> end
|125>
|126> *xyz 0 1
|127> O   0.943417578  -1.776026138  -0.299346069
|128> H   1.200517578  -2.442726138   0.349153931
|129> H  -0.018082422  -1.923226138  -0.450346069
|130> O   0.863917578   0.881773862   0.397953931
|131> H   1.540217578   1.372373862  -0.084446069
|132> H   1.020917578  -0.062726138   0.166253931
|133> O  -1.853982422   0.919673862  -0.058646069
|134> H  -0.892482422   1.066873862   0.092753931
|135> H  -2.110582422   1.585873862  -0.707746069
|136> *
|137>
|138>
|139> $new_job
|140>
|141> # 4h2o.temelso.etal.dset.3h2o.dset-orca.engrad-mp2.def2tzvp
|142> ! MP2 def2-TZVP EnGrad TightSCF FrozenCore
|143>
|144> %pal
|145>     nprocs 12
|146> end
|147>
|148> %maxcore 8000
|149>
|150> %scf
|151>     ConvForced true
|152> end
|153>
|154> *xyz 0 1
|155> O   0.945661852  -0.883290547  -0.089918403
|156> H   1.202761852  -1.549990547   0.558581597
|157> H  -0.015838148  -1.030490547  -0.240918403
|158> O   0.866161852   1.774509453   0.607381597
|159> H   1.542461852   2.265109453   0.124981597
|160> H   1.023161852   0.830009453   0.375681597
|161> O  -1.772438148  -0.845690547  -0.545318403
|162> H  -1.929338148   0.098809453  -0.313918403
|163> H  -2.448438148  -1.336190547  -0.062218403
|164> *
|165>
|166>
|167> $new_job
|168>
|169> # 4h2o.temelso.etal.dset.3h2o.dset-orca.engrad-mp2.def2tzvp
|170> ! MP2 def2-TZVP EnGrad TightSCF FrozenCore
|171>
|172> %pal
|173>     nprocs 12
|174> end
|175>
|176> %maxcore 8000
|177>
|178> %scf
|179>     ConvForced true
|180> end
|181>
|182> *xyz 0 1
|183> O   1.854022981  -0.919557078   0.058246069
|184> H   2.111122981  -1.586257078   0.706746069
|185> H   0.892522981  -1.066757078  -0.092753931
|186> O  -0.943377019   1.776142922   0.298946069
|187> H   0.018122981   1.923342922   0.450346069
|188> H  -1.199977019   2.442342922  -0.350153931
|189> O  -0.864077019  -0.881957078  -0.397153931
|190> H  -1.020977019   0.062542922  -0.165753931
|191> H  -1.540077019  -1.372457078   0.085946069
|192> *
|193>
|194>
|195> $new_job
|196>
|197> # 4h2o.temelso.etal.dset.3h2o.dset-orca.engrad-mp2.def2tzvp
|198> ! MP2 def2-TZVP EnGrad TightSCF FrozenCore
|199>
|200> %pal
|201>     nprocs 12
|202> end
|203>
|204> %maxcore 8000
|205>
|206> %scf
|207>     ConvForced true
|208> end
|209>
|210> *xyz 0 1
|211> O   1.772347239   0.845596141   0.545707214
|212> H   2.448647239   1.336196141   0.063307214
|213> H   1.929347239  -0.098903859   0.314007214
|214> O  -0.945552761   0.883496141   0.089107214
|215> H   0.015947239   1.030696141   0.240507214
|216> H  -1.202152761   1.549696141  -0.559992786
|217> O  -0.866252761  -1.774603859  -0.606992786
|218> H  -1.023152761  -0.830103859  -0.375592786
|219> H  -1.542252761  -2.265103859  -0.123892786
|220> *
|221>
|222>
|223> $new_job
|224>
|225> # 4h2o.temelso.etal.dset.3h2o.dset-orca.engrad-mp2.def2tzvp
|226> ! MP2 def2-TZVP EnGrad TightSCF FrozenCore
|227>
|228> %pal
|229>     nprocs 12
|230> end
|231>
|232> %maxcore 8000
|233>
|234> %scf
|235>     ConvForced true
|236> end
|237>
|238> *xyz 0 1
|239> O   1.659612623  -0.724928791   0.497202382
|240> H   1.367012623   0.018171209  -0.066197618
|241> H   2.607412623  -0.597228791   0.621502382
|242> O  -1.740787377  -0.197528791   0.620002382
|243> H  -1.441687377  -0.175128791   1.538502382
|244> H  -1.388087377  -1.043128791   0.267802382
|245> O   0.056312623   0.878171209  -1.140097618
|246> H  -0.685287377   0.731471209  -0.508997618
|247> H  -0.064687377   1.768871209  -1.489197618
|248> *
|249>
|250>
|251> $new_job
|252>
|253> # 4h2o.temelso.etal.dset.3h2o.dset-orca.engrad-mp2.def2tzvp
|254> ! MP2 def2-TZVP EnGrad TightSCF FrozenCore
|255>
|256> %pal
|257>     nprocs 12
|258> end
|259>
|260> %maxcore 8000
|261>
|262> %scf
|263>     ConvForced true
|264> end
|265>
|266> *xyz 0 1
|267> O   1.763292496   0.277384699   0.436839908
|268> H   1.470692496   1.020484699  -0.126560092
|269> H   2.711092496   0.405084699   0.561139908
|270> O  -1.637107504   0.804784699   0.559639908
|271> H  -1.338007504   0.827184699   1.478139908
|272> H  -1.284407504  -0.040815301   0.207439908
|273> O  -0.249007504  -1.130215301  -0.990460092
|274> H  -0.214507504  -0.447615301  -1.678160092
|275> H   0.604892496  -1.001615301  -0.537560092
|276> *
|277>
|278>
|279> $new_job
|280>
|281> # 4h2o.temelso.etal.dset.3h2o.dset-orca.engrad-mp2.def2tzvp
|282> ! MP2 def2-TZVP EnGrad TightSCF FrozenCore
|283>
|284> %pal
|285>     nprocs 12
|286> end
|287>
|288> %maxcore 8000
|289>
|290> %scf
|291>     ConvForced true
|292> end
|293>
|294> *xyz 0 1
|295> O   1.192500396  -0.110407840   1.028841666
|296> H   0.899900396   0.632692160   0.465441666
|297> H   2.140300396   0.017292160   1.153141666
|298> O  -0.410799604   1.492692160  -0.608458334
|299> H  -1.152399604   1.345992160   0.022641666
|300> H  -0.531799604   2.383392160  -0.957558334
|301> O  -0.819799604  -1.518007840  -0.398458334
|302> H  -0.785299604  -0.835407840  -1.086158334
|303> H   0.034100396  -1.389407840   0.054441666
|304> *
|305>
|306>
|307> $new_job
|308>
|309> # 4h2o.temelso.etal.dset.3h2o.dset-orca.engrad-mp2.def2tzvp
|310> ! MP2 def2-TZVP EnGrad TightSCF FrozenCore
|311>
|312> %pal
|313>     nprocs 12
|314> end
|315>
|316> %maxcore 8000
|317>
|318> %scf
|319>     ConvForced true
|320> end
|321>
|322> *xyz 0 1
|323> O  -1.074369532   0.272782658   1.091959167
|324> H  -0.775269532   0.295182658   2.010459167
|325> H  -0.721669532  -0.572817342   0.739759167
|326> O   0.722730468   1.348482658  -0.668140833
|327> H  -0.018869532   1.201782658  -0.037040833
|328> H   0.601730468   2.239182658  -1.017240833
|329> O   0.313730468  -1.662217342  -0.458140833
|330> H   0.348230468  -0.979617342  -1.145840833
|331> H   1.167630468  -1.533617342  -0.005240833
|332> *
|333>
|334>                          ****END OF INPUT****
 Total Charge           Charge          ....    0
 Multiplicity           Mult            ....    1
 Number of Electrons    NEL             ....   30
MP2 TOTAL ENERGY:     -228.960538534 Eh
FINAL SINGLE POINT ENERGY      -228.960538533793
MP2 TOTAL ENERGY:     -228.960541778 Eh
FINAL SINGLE POINT ENERGY      -228.960541778475
MP2 TOTAL ENERGY:     -228.960538873 Eh
FINAL SINGLE POINT ENERGY      -228.960538873335
MP2 TOTAL ENERGY:     -228.960538582 Eh
FINAL SINGLE POINT ENERGY      -228.960538581723
MP2 TOTAL ENERGY:     -228.959754049 Eh
FINAL SINGLE POINT ENERGY      -228.959754049009
MP2 TOTAL ENERGY:     -228.959746839 Eh
FINAL SINGLE POINT ENERGY      -228.959746838645
MP2 TOTAL ENERGY:     -228.959754301 Eh
FINAL SINGLE POINT ENERGY      -228.959754300521
MP2 TOTAL ENERGY:     -228.959744094 Eh
FINAL SINGLE POINT ENERGY      -228.959744093592
MP2 TOTAL ENERGY:     -228.960360461 Eh
FINAL SINGLE POINT ENERGY      -228.960360461249
MP2 TOTAL ENERGY:     -228.954862562 Eh
FINAL SINGLE POINT ENERGY      -228.954862561710
MP2 TOTAL ENERGY:     -228.957385370 Eh
FINAL SINGLE POINT ENERGY      -228.957385369743

CARTESIAN COORDINATES (ANGSTROEM)
---------------------------------
  O     -1.074370    0.272783    1.091959
  H     -0.775270    0.295183    2.010459
  H     -0.721670   -0.572817    0.739759
  O      0.722730    1.348483   -0.668141
  H     -0.018870    1.201783   -0.037041
  H      0.601730    2.239183   -1.017241
  O      0.313730   -1.662217   -0.458141
  H      0.348230   -0.979617   -1.145841
  H      1.167630   -1.533617   -0.005241

 Multiplicity           Mult            ....    1
 Number of Electrons    NEL             ....   30
 Basis Dimension        Dim             ....  129

ORBITAL ENERGIES
----------------

  NO   OCC          E(Eh)            E(eV)
   0   2.0000     -20.575983      -559.9010
   1   2.0000     -20.567174      -559.6613
   2   2.0000     -20.544223      -559.0367
   3   2.0000      -1.364768       -37.1372
   4   2.0000      -1.350306       -36.7437
   5   2.0000      -1.325929       -36.0804
   6   2.0000      -0.726718       -19.7750
   7   2.0000      -0.713836       -19.4245
   8   2.0000      -0.699834       -19.0435
   9   2.0000      -0.601857       -16.3774
  10   2.0000      -0.601093       -16.3566
  11   2.0000      -0.564120       -15.3505
  12   2.0000      -0.520853       -14.1731
  13   2.0000      -0.508164       -13.8278
  14   2.0000      -0.493644       -13.4327
  15   0.0000       0.117362         3.1936
  16   0.0000       0.162406         4.4193
  17   0.0000       0.167168         4.5489
  18   0.0000       0.220024         5.9872
  19   0.0000       0.281184         7.6514

MULLIKEN ATOMIC CHARGES
-----------------------
   0 O :   -0.706762
   1 H :    0.343022
   2 H :    0.371741
   3 O :   -0.732230
   4 H :    0.365336
   5 H :    0.332614
   6 O :   -0.692200
   7 H :    0.370347
   8 H :    0.348132
Sum of atomic charges:    0.0000000

LOEWDIN ATOMIC CHARGES
----------------------
   0 O :   -0.304429
   1 H :    0.161658
   2 H :    0.155739
   3 O :   -0.358274
   4 H :    0.147770
   5 H :    0.156393
   6 O :   -0.296997
   7 H :    0.167603
   8 H :    0.170539

  Mayer bond orders larger than 0.100000
B(  0-O ,  1-H ) :   0.8461 B(  0-O ,  2-H ) :   0.7897 B(  3-O ,  4-H ) :   0.7853
B(  3-O ,  5-H ) :   0.8543 B(  6-O ,  7-H ) :   0.8208 B(  6-O ,  8-H ) :   0.8425

MP2 TOTAL ENERGY:     -228.962980177 Eh
FINAL SINGLE POINT ENERGY      -228.962980176844

DIPOLE MOMENT
-------------
                                X             Y             Z
Electronic contribution:     -0.14590      -0.26022      -0.05444
Nuclear contribution   :      0.56401       0.60929       0.51065
                        -----------------------------------------
Total Dipole Moment    :      0.41811       0.34907       0.45621
                        -----------------------------------------
Magnitude (a.u.)       :      0.71049
Magnitude (Debye)      :      1.80592

Rotational constants in cm-1:     0.248315     0.194427     0.111758
Rotational constants in MHz :  7444.287429  5828.772463  3350.411067

                             ****ORCA TERMINATED NORMALLY****
TOTAL RUN TIME: 0 days 0 hours 1 minutes 46 seconds 533 msec
