                         Program Version 4.2.0 -  RELEASE  -
|  1> # 4meoh.boyd.etal.dset.3meoh.dset-orca.engrad-mp2.def2tzvp
|  2> ! MP2 def2-TZVP EnGrad TightSCF FrozenCore
|  3>
|  4> %pal
|  5>     nprocs 12
|  6> end
|  7>
|  8> %maxcore 8000
|  9>
| 10> %scf
| 11>     ConvForced true
| 12> end
| 13>
| 14> *xyz 0 1
| 15> O  -0.884089922   1.829748437   0.160551251
| 16> H   0.092922414   2.012906450   0.150780038
| 17> C  -1.458096075   2.423865672  -0.996720205
| 18> H  -2.518408574   2.156023875  -1.016143078
| 19> H  -0.990943803   2.067581213  -1.926176899
| 20> H  -1.378620766   3.519239884  -0.964927655
| 21> O  -0.716088190  -0.866008786   0.273945636
| 22> H  -0.892666285   0.110673260   0.217447787
| 23> C  -1.341708893  -1.363524067   1.449616676
| 24> H  -1.115564893  -2.431366560   1.519802125
| 25> H  -2.432846758  -1.243811649   1.402918380
| 26> H  -0.975698531  -0.868626917   2.360845521
| 27> O   1.977054403  -0.698272908   0.127355722
| 28> H   1.004043497  -0.872003308   0.232681548
| 29> C   2.425198130  -1.390990374  -1.030456982
| 30> H   3.485778485  -1.160368525  -1.165811951
| 31> H   1.882836070  -1.086208850  -1.937068319
| 32> H   2.320300273  -2.478140836  -0.911204565
| 33> *
| 34>
| 35>
| 36> $new_job
| 37>
| 38> # 4meoh.boyd.etal.dset.3meoh.dset-orca.engrad-mp2.def2tzvp
| 39> ! MP2 def2-TZVP EnGrad TightSCF FrozenCore
| 40>
| 41> %pal
| 42>     nprocs 12
| 43> end
| 44>
| 45> %maxcore 8000
| 46>
| 47> %scf
| 48>     ConvForced true
| 49> end
| 50>
| 51> *xyz 0 1
| 52> O  -0.879773206   0.734986813  -0.196511902
| 53> H   0.097239131   0.918144826  -0.206283116
| 54> C  -1.453779358   1.329104048  -1.353783359
| 55> H  -2.514091857   1.061262251  -1.373206231
| 56> H  -0.986627086   0.972819589  -2.283240052
| 57> H  -1.374304049   2.424478261  -1.321990809
| 58> O  -0.711771474  -1.960770409  -0.083117518
| 59> H  -0.888349569  -0.984088363  -0.139615367
| 60> C  -1.337392176  -2.458285691   1.092553522
| 61> H  -1.111248176  -3.526128184   1.162738972
| 62> H  -2.428530041  -2.338573272   1.045855226
| 63> H  -0.971381815  -1.963388540   2.003782368
| 64> O   1.816289312   0.905498282  -0.280969728
| 65> H   1.986122964  -0.073478252  -0.304703825
| 66> C   2.503040813   1.445570941   0.840701360
| 67> H   2.289243537   2.517642375   0.876291383
| 68> H   3.589418873   1.312511055   0.745786866
| 69> H   2.178199660   0.993040019   1.788771550
| 70> *
| 71>
| 72>
| 73> $new_job
| 74>
| 75> # 4meoh.boyd.etal.dset.3meoh.dset-orca.engrad-mp2.def2tzvp
| 76> ! MP2 def2-TZVP EnGrad TightSCF FrozenCore
| 77>
| 78> %pal
| 79>     nprocs 12
| 80> end
| 81>
| 82> %maxcore 8000
| 83>
| 84> %scf
| 85>     ConvForced true
| 86> end
| 87>
| 88> *xyz 0 1
| 89> O  -1.946638612   0.722699671   0.235086030
| 90> H  -0.969626276   0.905857684   0.225314817
| 91> C  -2.520644764   1.316816906  -0.922185427
| 92> H  -3.580957263   1.048975108  -0.941608299
| 93> H  -2.053492493   0.960532446  -1.851642120
| 94> H  -2.441169455   2.412191118  -0.890392877
| 95> O   0.914505713  -1.805321674   0.201890500
| 96> H  -0.058505193  -1.979052074   0.307216326
| 97> C   1.362649441  -2.498039140  -0.955922204
| 98> H   2.423229796  -2.267417291  -1.091277173
| 99> H   0.820287380  -2.193257617  -1.862533541
|100> H   1.257751583  -3.585189602  -0.836669787
|101> O   0.749423906   0.893211139   0.150628204
|102> H   0.919257557  -0.085765395   0.126894108
|103> C   1.436175407   1.433283799   1.272299292
|104> H   1.222378131   2.505355233   1.307889315
|105> H   2.522553467   1.300223912   1.177384798
|106> H   1.111334254   0.980752876   2.220369482
|107> *
|108>
|109>
|110> $new_job
|111>
|112> # 4meoh.boyd.etal.dset.3meoh.dset-orca.engrad-mp2.def2tzvp
|113> ! MP2 def2-TZVP EnGrad TightSCF FrozenCore
|114>
|115> %pal
|116>     nprocs 12
|117> end
|118>
|119> %maxcore 8000
|120>
|121> %scf
|122>     ConvForced true
|123> end
|124>
|125> *xyz 0 1
|126> O  -1.814623451  -0.902367865  -0.073115511
|127> H  -1.991201547   0.074314181  -0.129613360
|128> C  -2.440244154  -1.399883146   1.102555530
|129> H  -2.214100154  -2.467725639   1.172740979
|130> H  -3.531382019  -1.280170727   1.055857234
|131> H  -2.074233793  -0.904985996   2.013784375
|132> O   0.878519141  -0.734631987  -0.219705425
|133> H  -0.094491765  -0.908362387  -0.114379599
|134> C   1.326662869  -1.427349453  -1.377518129
|135> H   2.387243224  -1.196727604  -1.512873098
|136> H   0.784300808  -1.122567929  -2.284129466
|137> H   1.221765011  -2.514499915  -1.258265712
|138> O   0.713437334   1.963900826  -0.270967720
|139> H   0.883270986   0.984924293  -0.294701817
|140> C   1.400188835   2.503973486   0.850703368
|141> H   1.186391559   3.576044920   0.886293391
|142> H   2.486566895   2.370913599   0.755788873
|143> H   1.075347682   2.051442563   1.798773558
|144> *
|145>
|146>
|147> $new_job
|148>
|149> # 4meoh.boyd.etal.dset.3meoh.dset-orca.engrad-mp2.def2tzvp
|150> ! MP2 def2-TZVP EnGrad TightSCF FrozenCore
|151>
|152> %pal
|153>     nprocs 12
|154> end
|155>
|156> %maxcore 8000
|157>
|158> %scf
|159>     ConvForced true
|160> end
|161>
|162> *xyz 0 1
|163> O   0.345331880  -1.769865154  -0.950198787
|164> H   1.070748513  -1.691901536  -0.276678915
|165> C   0.927921038  -2.084737700  -2.207101435
|166> H   0.119884100  -2.142877224  -2.941882559
|167> H   1.438659824  -3.057361212  -2.179661223
|168> H   1.645867655  -1.321313002  -2.542080350
|169> O  -0.784116080   0.657223217  -0.548654315
|170> H  -0.415304580  -0.230393264  -0.798701957
|171> C  -2.144112982   0.477452498  -0.178923905
|172> H  -2.541582762   1.453894805   0.113442412
|173> H  -2.262324266  -0.216770248   0.666120883
|174> H  -2.741726070   0.101423479  -1.020836708
|175> O   1.101462596   1.230345960   1.323906820
|176> H   0.377048783   1.152907265   0.649227390
|177> C   0.516484430   1.540162635   2.580957304
|178> H   1.323350371   1.597409886   3.317094945
|179> H  -0.200556390   0.774374048   2.912442532
|180> H   0.004036721   2.511950276   2.555867302
|181> *
|182>
|183>
|184> $new_job
|185>
|186> # 4meoh.boyd.etal.dset.3meoh.dset-orca.engrad-mp2.def2tzvp
|187> ! MP2 def2-TZVP EnGrad TightSCF FrozenCore
|188>
|189> %pal
|190>     nprocs 12
|191> end
|192>
|193> %maxcore 8000
|194>
|195> %scf
|196>     ConvForced true
|197> end
|198>
|199> *xyz 0 1
|200> O  -0.355706940  -0.948648717  -0.557187163
|201> H   0.369709692  -0.870685099   0.116332709
|202> C   0.226882218  -1.263521263  -1.814089811
|203> H  -0.581154721  -1.321660787  -2.548870935
|204> H   0.737621004  -2.236144775  -1.786649599
|205> H   0.944828834  -0.500096565  -2.149068726
|206> O  -1.485154900   1.478439654  -0.155642691
|207> H  -1.116343400   0.590823173  -0.405690333
|208> C  -2.845151803   1.298668935   0.214087720
|209> H  -3.242621583   2.275111242   0.506454036
|210> H  -2.963363087   0.604446189   1.059132507
|211> H  -3.442764891   0.922639916  -0.627825084
|212> O   1.531128619  -0.374643546   1.313835837
|213> H   1.163794564   0.513732118   1.563426871
|214> C   2.891699136  -0.197856428   0.944799711
|215> H   3.287966268  -1.175608086   0.655183533
|216> H   3.489225980   0.179334258   1.786257314
|217> H   3.011749122   0.494076132   0.098111793
|218> *
|219>
|220>
|221> $new_job
|222>
|223> # 4meoh.boyd.etal.dset.3meoh.dset-orca.engrad-mp2.def2tzvp
|224> ! MP2 def2-TZVP EnGrad TightSCF FrozenCore
|225>
|226> %pal
|227>     nprocs 12
|228> end
|229>
|230> %maxcore 8000
|231>
|232> %scf
|233>     ConvForced true
|234> end
|235>
|236> *xyz 0 1
|237> O  -1.101224878  -1.228499591  -1.323531135
|238> H  -0.375808245  -1.150535973  -0.650011263
|239> C  -0.518635720  -1.543372138  -2.580433783
|240> H  -1.326672658  -1.601511662  -3.315214907
|241> H  -0.007896934  -2.515995650  -2.552993571
|242> H   0.199310897  -0.779947439  -2.915412698
|243> O  -0.345094163   1.771711523   0.950574472
|244> H  -1.069507975   1.694272828   0.275895042
|245> C  -0.930072328   2.081528198   2.207624956
|246> H  -0.123206387   2.138775449   2.943762597
|247> H  -1.647113148   1.315739611   2.539110185
|248> H  -1.442520037   3.053315839   2.182534954
|249> O   0.785610681  -0.654494420   0.547491865
|250> H   0.418276626   0.233881243   0.797082899
|251> C   2.146181198  -0.477707303   0.178455739
|252> H   2.542448331  -1.455458961  -0.111160439
|253> H   2.743708042  -0.100516617   1.019913342
|254> H   2.266231184   0.214225258  -0.668232179
|255> *
|256>
|257>
|258> $new_job
|259>
|260> # 4meoh.boyd.etal.dset.3meoh.dset-orca.engrad-mp2.def2tzvp
|261> ! MP2 def2-TZVP EnGrad TightSCF FrozenCore
|262>
|263> %pal
|264>     nprocs 12
|265> end
|266>
|267> %maxcore 8000
|268>
|269> %scf
|270>     ConvForced true
|271> end
|272>
|273> *xyz 0 1
|274> O  -1.530547772   0.376734297  -1.314583010
|275> H  -1.161736272  -0.510882184  -1.564630652
|276> C  -2.890544675   0.196963578  -0.944852600
|277> H  -3.288014454   1.173405885  -0.652486284
|278> H  -3.008755958  -0.497259168  -0.099807813
|279> H  -3.488157762  -0.179065441  -1.786765404
|280> O   0.355030903   0.949857040   0.557978124
|281> H  -0.369382909   0.872418345  -0.116701306
|282> C  -0.229947262   1.259673715   1.815028608
|283> H   0.576918679   1.316920967   2.551166249
|284> H  -0.946988082   0.493885129   2.146513837
|285> H  -0.742394971   2.231461356   1.789938606
|286> O   1.485735747  -1.476348903   0.154895517
|287> H   1.118401692  -0.587973239   0.404486551
|288> C   2.846306264  -1.299561785  -0.214140609
|289> H   3.242573397  -2.277313443  -0.503756787
|290> H   3.443833108  -0.922371099   0.627316994
|291> H   2.966356250  -0.607629225  -1.060828527
|292> *
|293>
|294>
|295> $new_job
|296>
|297> # 4meoh.boyd.etal.dset.3meoh.dset-orca.engrad-mp2.def2tzvp
|298> ! MP2 def2-TZVP EnGrad TightSCF FrozenCore
|299>
|300> %pal
|301>     nprocs 12
|302> end
|303>
|304> %maxcore 8000
|305>
|306> %scf
|307>     ConvForced true
|308> end
|309>
|310> *xyz 0 1
|311> O  -0.089513670  -1.524930861  -1.388988014
|312> H   0.848393898  -1.485179994  -1.065201344
|313> C  -0.067267772  -1.403407374  -2.806331775
|314> H  -1.104105378  -1.393758794  -3.154252900
|315> H   0.446256207  -2.255906097  -3.271650954
|316> H   0.422377063  -0.477111398  -3.138458136
|317> O  -1.005105844   0.566608870   0.059813440
|318> H  -0.767031379  -0.191827216  -0.536582357
|319> C  -1.997897198   0.116513112   0.969921746
|320> H  -2.237702671   0.947704164   1.639682298
|321> H  -1.658030900  -0.735520719   1.577680585
|322> H  -2.917699441  -0.178992628   0.446373754
|323> O   1.531017125   1.087795617   0.897475688
|324> H   0.576211243   1.016321180   0.636048362
|325> C   1.606097892   1.201648298   2.309773964
|326> H   2.662896399   1.279354599   2.581572056
|327> H   1.177812994   0.330207386   2.828841589
|328> H   1.093320717   2.105176950   2.668294170
|329> *
|330>
|331>
|332> $new_job
|333>
|334> # 4meoh.boyd.etal.dset.3meoh.dset-orca.engrad-mp2.def2tzvp
|335> ! MP2 def2-TZVP EnGrad TightSCF FrozenCore
|336>
|337> %pal
|338>     nprocs 12
|339> end
|340>
|341> %maxcore 8000
|342>
|343> %scf
|344>     ConvForced true
|345> end
|346>
|347> *xyz 0 1
|348> O  -0.484989781  -0.633460273  -0.851108014
|349> H   0.452917788  -0.593709406  -0.527321343
|350> C  -0.462743883  -0.511936786  -2.268451774
|351> H  -1.499581489  -0.502288206  -2.616372899
|352> H   0.050780096  -1.364435509  -2.733770953
|353> H   0.026900952   0.414359190  -2.600578135
|354> O  -1.400581954   1.458079458   0.597693441
|355> H  -1.162507490   0.699643372   0.001297644
|356> C  -2.393373309   1.007983700   1.507801747
|357> H  -2.633178782   1.839174752   2.177562299
|358> H  -2.053507011   0.155949869   2.115560586
|359> H  -3.313175552   0.712477960   0.984253755
|360> O   2.023481048  -0.201819718   0.072002831
|361> H   1.829671816   0.621217100   0.591389765
|362> C   2.656104985  -1.138733972   0.931749659
|363> H   2.845397382  -2.046262108   0.351525764
|364> H   2.031195695  -1.405697524   1.797350009
|365> H   3.619215995  -0.758732443   1.300083995
|366> *
|367>
|368>
|369> $new_job
|370>
|371> # 4meoh.boyd.etal.dset.3meoh.dset-orca.engrad-mp2.def2tzvp
|372> ! MP2 def2-TZVP EnGrad TightSCF FrozenCore
|373>
|374> %pal
|375>     nprocs 12
|376> end
|377>
|378> %maxcore 8000
|379>
|380> %scf
|381>     ConvForced true
|382> end
|383>
|384> *xyz 0 1
|385> O  -1.494679898  -0.907061624  -1.216529282
|386> H  -0.556772330  -0.867310757  -0.892742611
|387> C  -1.472434000  -0.785538138  -2.633873042
|388> H  -2.509271606  -0.775889557  -2.981794167
|389> H  -0.958910021  -1.638036860  -3.099192221
|390> H  -0.982789165   0.140757839  -2.965999403
|391> O   0.125850897   1.705664854   1.069934420
|392> H  -0.828954985   1.634190417   0.808507095
|393> C   0.200931664   1.819517535   2.482232697
|394> H   1.257730171   1.897223835   2.754030789
|395> H  -0.227353234   0.948076622   3.001300322
|396> H  -0.311845511   2.723046187   2.840752903
|397> O   1.013790931  -0.475421070  -0.293418438
|398> H   0.819981699   0.347615749   0.225968497
|399> C   1.646414868  -1.412335324   0.566328391
|400> H   1.835707265  -2.319863459  -0.013895504
|1375> end
|1376>
|1377> %maxcore 8000
|1378>
|1379> %scf
|1380>     ConvForced true
|1381> end
|1382>
|1383> *xyz 0 1
|1384> O  -0.917403288  -1.135783097  -1.741420792
|1385> H   0.046515578  -1.195522388  -1.541966322
|1386> C  -1.093219745  -1.151289311  -3.153275577
|1387> H  -2.161368658  -1.028153047  -3.351330807
|1388> H  -0.769644042  -2.107309337  -3.586630859
|1389> H  -0.546789609  -0.338370514  -3.653351596
|1390> O  -1.419684004   2.099183668   2.272253786
|1391> H  -1.239475294   1.552107887   1.483340161
|1392> C  -0.405244375   1.833636836   3.217387784
|1393> H  -0.582531107   2.481950940   4.081708142
|1394> H   0.606605934   2.051779927   2.835715016
|1395> H  -0.413795379   0.789812676   3.574229871
|1396> O   1.576327851  -0.499750926  -0.824307516
|1397> H   1.042022886   0.236996119  -0.453838523
|1398> C   2.238309755  -1.164328365   0.247139261
|1399> H   2.786522304  -2.006563958  -0.183010121
|1400> H   1.534480985  -1.551408696   0.997624884
|1401> H   2.958056288  -0.502190802   0.747365344
|1402> *
|1403>
|1404>
|1405> $new_job
|1406>
|1407> # 4meoh.boyd.etal.dset.3meoh.dset-orca.engrad-mp2.def2tzvp
|1408> ! MP2 def2-TZVP EnGrad TightSCF FrozenCore
|1409>
|1410> %pal
|1411>     nprocs 12
|1412> end
|1413>
|1414> %maxcore 8000
|1415>
|1416> %scf
|1417>     ConvForced true
|1418> end
|1419>
|1420> *xyz 0 1
|1421> O  -0.979589344  -1.050509599  -0.638586413
|1422> H  -0.015670478  -1.110248891  -0.439131944
|1423> C  -1.155405800  -1.066015814  -2.050441198
|1424> H  -2.223554714  -0.942879550  -2.248496429
|1425> H  -0.831830098  -2.022035840  -2.483796480
|1426> H  -0.608975664  -0.253097016  -2.550517218
|1427> O  -0.684026283   1.189767844   0.865034135
|1428> H  -1.060337610   0.456395008   0.315455680
|1429> C  -0.870118540   2.432597456   0.181134301
|1430> H  -0.623266516   3.225150101   0.890011559
|1431> H  -1.913269032   2.560974981  -0.132533874
|1432> H  -0.217169438   2.510581705  -0.698259357
|1433> O   1.514141795  -0.414477429   0.278526863
|1434> H   0.979836830   0.322269617   0.648995855
|1435> C   2.176123699  -1.079054868   1.349973639
|1436> H   2.724336248  -1.921290461   0.919824257
|1437> H   1.472294930  -1.466135199   2.100459263
|1438> H   2.895870232  -0.416917305   1.850199723
|1439> *
|1440>
|1441>
|1442> $new_job
|1443>
|1444> # 4meoh.boyd.etal.dset.3meoh.dset-orca.engrad-mp2.def2tzvp
|1445> ! MP2 def2-TZVP EnGrad TightSCF FrozenCore
|1446>
|1447> %pal
|1448>     nprocs 12
|1449> end
|1450>
|1451> %maxcore 8000
|1452>
|1453> %scf
|1454>     ConvForced true
|1455> end
|1456>
|1457> *xyz 0 1
|1458> O  -1.503119796   1.152001381   1.658261783
|1459> H  -1.322911086   0.604925601   0.869348158
|1460> C  -0.488680167   0.886454549   2.603395781
|1461> H  -0.665966900   1.534768654   3.467716138
|1462> H   0.523170142   1.104597641   2.221723013
|1463> H  -0.497231172  -0.157369610   2.960237868
|1464> O  -0.705276020   0.157312060  -0.851792246
|1465> H  -1.081587347  -0.576060775  -1.401370702
|1466> C  -0.891368277   1.400141673  -1.535692081
|1467> H  -0.644516253   2.192694317  -0.826814823
|1468> H  -1.934518769   1.528519197  -1.849360256
|1469> H  -0.238419175   1.478125922  -2.415085739
|1470> O   1.492892058  -1.446933212  -1.438299519
|1471> H   0.958587093  -0.710186167  -1.067830526
|1472> C   2.154873962  -2.111510652  -0.366852743
|1473> H   2.703086512  -2.953746244  -0.797002125
|1474> H   1.451045193  -2.498590983   0.383632881
|1475> H   2.874620495  -1.449373088   0.133373341
|1476> *
|1477>
|1478>
|1479> $new_job
|1480>
|1481> # 4meoh.boyd.etal.dset.3meoh.dset-orca.engrad-mp2.def2tzvp
|1482> ! MP2 def2-TZVP EnGrad TightSCF FrozenCore
|1483>
|1484> %pal
|1485>     nprocs 12
|1486> end
|1487>
|1488> %maxcore 8000
|1489>
|1490> %scf
|1491>     ConvForced true
|1492> end
|1493>
|1494> *xyz 0 1
|1495> O  -0.999651895  -1.004191422  -0.959566935
|1496> H  -0.075162123  -1.180975604  -0.680308959
|1497> C  -0.982917586  -0.521888194  -2.296767896
|1498> H  -2.014912601  -0.288091217  -2.571574415
|1499> H  -0.603743735  -1.280441890  -2.995243223
|1500> H  -0.377064055   0.390047269  -2.408327554
|1501> O  -0.847635717   0.607805499   1.261872127
|1502> H  -1.215001125   0.119913427   0.488099762
|1503> C  -1.119831500   1.994757460   1.108314467
|1504> H  -0.659502056   2.513865014   1.952977196
|1505> H  -2.199463968   2.196589697   1.125673436
|1506> H  -0.701842971   2.404743592   0.176684784
|1507> O   1.340165415  -0.819908385   0.527267491
|1508> H   0.742136168  -0.162693763   0.962165788
|1509> C   2.627034141  -0.225987975   0.342348574
|1510> H   3.240223608  -0.943004982  -0.208975845
|1511> H   3.101754993  -0.024742735   1.309729561
|1512> H   2.565452772   0.704886018  -0.237677569
|1513> *
|1514>
|1515>
|1516> $new_job
|1517>
|1518> # 4meoh.boyd.etal.dset.3meoh.dset-orca.engrad-mp2.def2tzvp
|1519> ! MP2 def2-TZVP EnGrad TightSCF FrozenCore
|1520>
|1521> %pal
|1522>     nprocs 12
|1523> end
|1524>
|1525> %maxcore 8000
|1526>
|1527> %scf
|1528>     ConvForced true
|1529> end
|1530>
|1531> *xyz 0 1
|1532> O  -0.776349697  -0.596046387  -1.972165521
|1533> H   0.148140075  -0.772830569  -1.692907545
|1534> C  -0.759615388  -0.113743159  -3.309366482
|1535> H  -1.791610403   0.120053818  -3.584173001
|1536> H  -0.380441537  -0.872296856  -4.007841809
|1537> H  -0.153761857   0.798192303  -3.420926139
|1538> O  -0.624333519   1.015950534   0.249273542
|1539> H  -0.991698927   0.528058462  -0.524498824
|1540> C  -0.896529302   2.402902495   0.095715881
|1541> H  -0.436199858   2.922010048   0.940378610
|1542> H  -1.976161770   2.604734732   0.113074850
|1543> H  -0.478540773   2.812888627  -0.835913802
|1544> O   2.111227664  -1.366111225   2.130571125
|1545> H   1.863813785  -1.347514486   1.187268992
|1546> C   0.912555908  -1.281937589   2.880929248
|1547> H   1.190973390  -1.109460790   3.925769555
|1548> H   0.321161235  -2.211798663   2.838847833
|1549> H   0.265472347  -0.453635744   2.553955362
|1550> *
|1551>
|1552>
|1553> $new_job
|1554>
|1555> # 4meoh.boyd.etal.dset.3meoh.dset-orca.engrad-mp2.def2tzvp
|1556> ! MP2 def2-TZVP EnGrad TightSCF FrozenCore
|1557>
|1558> %pal
|1559>     nprocs 12
|1560> end
|1561>
|1562> %maxcore 8000
|1563>
|1564> %scf
|1565>     ConvForced true
|1566> end
|1567>
|1568> *xyz 0 1
|1569> O  -1.759907288  -0.000613113  -1.734076209
|1570> H  -0.835417516  -0.177397295  -1.454818234
|1571> C  -1.743172979   0.481690115  -3.071277170
|1572> H  -2.775167994   0.715487092  -3.346083689
|1573> H  -1.363999128  -0.276863581  -3.769752497
|1574> H  -1.137319449   1.393625578  -3.182836828
|1575> O   0.579910022   0.183669924  -0.247241784
|1576> H  -0.018119225   0.840884546   0.187656514
|1577> C   1.866778748   0.777590334  -0.432160700
|1578> H   2.479968215   0.060573327  -0.983485119
|1579> H   2.341499600   0.978835574   0.535220287
|1580> H   1.805197379   1.708464327  -1.012186844
|1581> O   1.127670073  -0.770677951   2.368660437
|1582> H   0.880256194  -0.752081212   1.425358303
|1583> C  -0.071001683  -0.686504315   3.119018559
|1584> H   0.207415799  -0.514027516   4.163858866
|1585> H  -0.662396356  -1.616365389   3.076937145
|1586> H  -0.718085245   0.141797530   2.792044674
|1587> *
|1588>
|1589>
|1590> $new_job
|1591>
|1592> # 4meoh.boyd.etal.dset.3meoh.dset-orca.engrad-mp2.def2tzvp
|1593> ! MP2 def2-TZVP EnGrad TightSCF FrozenCore
|1594>
|1595> %pal
|1596>     nprocs 12
|1597> end
|1598>
|1599> %maxcore 8000
|1600>
|1601> %scf
|1602>     ConvForced true
|1603> end
|1604>
|1605> *xyz 0 1
|1606> O  -1.598210872   0.928028524  -0.437841805
|1607> H  -1.965576281   0.440136452  -1.211614170
|1608> C  -1.870406655   2.314980486  -0.591399465
|1609> H  -1.410077211   2.834088039   0.253263264
|1610> H  -2.950039123   2.516812722  -0.574040497
|1611> H  -1.452418126   2.724966617  -1.523029148
|1612> O   0.589590260  -0.499685360  -1.172446442
|1613> H  -0.008438987   0.157529263  -0.737548144
|1614> C   1.876458986   0.094235050  -1.357365358
|1615> H   2.489648453  -0.622781956  -1.908689777
|1616> H   2.351179838   0.295480290  -0.389984371
|1617> H   1.814877616   1.025109043  -1.937391502
|1618> O   1.137350311  -1.454033235   1.443455779
|1619> H   0.889936432  -1.435436496   0.500153645
|1620> C  -0.061321446  -1.369859598   2.193813901
|1621> H   0.217096037  -1.197382800   3.238654208
|1622> H  -0.652716118  -2.299720673   2.151732487
|1623> H  -0.708405007  -0.541557753   1.866840016
|1624> *
|1625>
|1626>
|1627> $new_job
|1628>
|1629> # 4meoh.boyd.etal.dset.3meoh.dset-orca.engrad-mp2.def2tzvp
|1630> ! MP2 def2-TZVP EnGrad TightSCF FrozenCore
|1631>
|1632> %pal
|1633>     nprocs 12
|1634> end
|1635>
|1636> %maxcore 8000
|1637>
|1638> %scf
|1639>     ConvForced true
|1640> end
|1641>
|1642> *xyz 0 1
|1643> O   1.737033207  -0.413206324   0.271025118
|1644> H   1.035375066   0.261023051   0.404248002
|1645> C   2.181621513  -0.831081574   1.544650775
|1646> H   2.954979306  -1.591421105   1.392732977
|1647> H   1.380301376  -1.282052843   2.153948388
|1648> H   2.627186401  -0.009829522   2.129847135
|1649> O  -0.475742420   1.302171454   0.386492206
|1650> H  -0.980368555   0.629640025  -0.141003302
|1651> C  -0.274033056   2.446386249  -0.433522400
|1652> H   0.272573098   3.185721335   0.159005031
|1653> H  -1.227226119   2.894694701  -0.749877552
|1654> H   0.316456596   2.215312337  -1.331279307
|1655> O  -1.840598359  -0.619788942  -0.942503030
|1656> H  -2.722645709  -0.669477682  -0.513521929
|1657> C  -1.189070975  -1.888749630  -0.825781551
|1658> H  -0.111184739  -1.708580638  -0.817258485
|1659> H  -1.449768957  -2.540013659  -1.670646466
|1660> H  -1.461398861  -2.399654604   0.107588681
|1661> *
|1662>
|1663>
|1664> $new_job
|1665>
|1666> # 4meoh.boyd.etal.dset.3meoh.dset-orca.engrad-mp2.def2tzvp
|1667> ! MP2 def2-TZVP EnGrad TightSCF FrozenCore
|1668>
|1669> %pal
|1670>     nprocs 12
|1671> end
|1672>
|1673> %maxcore 8000
|1674>
|1675> %scf
|1676>     ConvForced true
|1677> end
|1678>
|1679> *xyz 0 1
|1680> O   2.492562518  -0.801258667  -0.425536305
|1681> H   1.790904378  -0.127029292  -0.292313422
|1682> C   2.937150825  -1.219133917   0.848089352
|1683> H   3.710508617  -1.979473448   0.696171554
|1684> H   2.135830687  -1.670105186   1.457386965
|1685> H   3.382715712  -0.397881865   1.433285712
|1686> O   0.279786891   0.914119111  -0.310069218
|1687> H  -0.224839243   0.241587682  -0.837564725
|1688> C   0.481496256   2.058333906  -1.130083823
|1689> H   1.028102409   2.797668992  -0.537556393
|1690> H  -0.471696808   2.506642358  -1.446438976
|1691> H   1.071985908   1.827259994  -2.027840730
|1692> O  -3.348353291  -0.701463353  -0.071810896
|1693> H  -3.772583275   0.073745345  -0.471614398
|1694> C  -2.730450353  -0.279899584   1.155408845
|1695> H  -2.364215678  -1.187011987   1.641081892
|1696> H  -3.459964675   0.200362667   1.819022731
|1697> H  -1.883606311   0.393332074   0.976010518
|1698> *
|1699>
|1700>
|1701> $new_job
|1702>
|1703> # 4meoh.boyd.etal.dset.3meoh.dset-orca.engrad-mp2.def2tzvp
|1704> ! MP2 def2-TZVP EnGrad TightSCF FrozenCore
|1705>
|1706> %pal
|1707>     nprocs 12
|1708> end
|1709>
|1710> %maxcore 8000
|1711>
|1712> %scf
|1713>     ConvForced true
|1714> end
|1715>
|1716> *xyz 0 1
|1717> O   2.877335787   0.230610056  -0.146606695
|1718> H   2.175677646   0.904839432  -0.013383811
|1719> C   3.321924093  -0.187265193   1.127018962
|1720> H   4.095281886  -0.947604724   0.975101164
|1721> H   2.520603956  -0.638236463   1.736316575
|1722> H   3.767488981   0.633986858   1.712215322
|1723> O  -0.700295779   0.024027439  -1.360134843
|1724> H  -1.582343130  -0.025661301  -0.931153742
|1725> C  -0.048768395  -1.244933250  -1.243413364
|1726> H   1.029117840  -1.064764258  -1.234890298
|1727> H  -0.309466377  -1.896197279  -2.088278279
|1728> H  -0.321096281  -1.755838224  -0.310043132
|1729> O  -2.963580022   0.330405370   0.207118714
|1730> H  -3.387810006   1.105614069  -0.192684788
|1731> C  -2.345677084   0.751969140   1.434338456
|1732> H  -1.979442410  -0.155143264   1.920011502
|1733> H  -3.075191406   1.232231390   2.097952341
|1734> H  -1.498833042   1.425200798   1.254940128
|1735> *
|1736>
|1737>
|1738> $new_job
|1739>
|1740> # 4meoh.boyd.etal.dset.3meoh.dset-orca.engrad-mp2.def2tzvp
|1741> ! MP2 def2-TZVP EnGrad TightSCF FrozenCore
|1742>
|1743> %pal
|1744>     nprocs 12
|1745> end
|1746>
|1747> %maxcore 8000
|1748>
|1749> %scf
|1750>     ConvForced true
|1751> end
|1752>
|1753> *xyz 0 1
|1754> O   1.440522663   1.129886451   0.282192650
|1755> H   0.935896528   0.457355022  -0.245302857
|1756> C   1.642232027   2.274101246  -0.537821955
|1757> H   2.188838181   3.013436332   0.054705475
|1758> H   0.689038964   2.722409698  -0.854177108
|1759> H   2.232721679   2.043027334  -1.435578862
|1760> O   0.075666724  -0.792073945  -1.046802585
|1761> H  -0.806380626  -0.841762685  -0.617821484
|1762> C   0.727194108  -2.061034633  -0.930081106
|1763> H   1.805080343  -1.880865641  -0.921558040
|1764> H   0.466496126  -2.712298662  -1.774946021
|1765> H   0.454866222  -2.571939607   0.003289126
|1766> O  -2.187617519  -0.485696013   0.520450972
|1767> H  -2.611847503   0.289512685   0.120647470
|1768> C  -1.569714581  -0.064132244   1.747670713
|1769> H  -1.203479907  -0.971244647   2.233343760
|1770> H  -2.299228903   0.416130007   2.411284599
|1771> H  -0.722870539   0.609099414   1.568272386
|1772> *
|1773>
|1774>                          ****END OF INPUT****
 Total Charge           Charge          ....    0
 Multiplicity           Mult            ....    1
 Number of Electrons    NEL             ....   54
MP2 TOTAL ENERGY:     -346.545065280 Eh
FINAL SINGLE POINT ENERGY      -346.545065280225
MP2 TOTAL ENERGY:     -346.545094001 Eh
FINAL SINGLE POINT ENERGY      -346.545094001179
MP2 TOTAL ENERGY:     -346.545081340 Eh
FINAL SINGLE POINT ENERGY      -346.545081340351
MP2 TOTAL ENERGY:     -346.545007503 Eh
FINAL SINGLE POINT ENERGY      -346.545007503425
MP2 TOTAL ENERGY:     -346.544632363 Eh
FINAL SINGLE POINT ENERGY      -346.544632363054
MP2 TOTAL ENERGY:     -346.544600113 Eh
FINAL SINGLE POINT ENERGY      -346.544600113317
FINAL SINGLE POINT ENERGY      -346.544638112370
FINAL SINGLE POINT ENERGY      -346.544605058006
FINAL SINGLE POINT ENERGY      -346.544758999875
FINAL SINGLE POINT ENERGY      -346.545071607267
FINAL SINGLE POINT ENERGY      -346.552183283681
FINAL SINGLE POINT ENERGY      -346.539673922953
FINAL SINGLE POINT ENERGY      -346.551027871003
FINAL SINGLE POINT ENERGY      -346.532295898450
MP2 TOTAL ENERGY:     -346.537908094 Eh
FINAL SINGLE POINT ENERGY      -346.537908093824
MP2 TOTAL ENERGY:     -346.540795374 Eh
FINAL SINGLE POINT ENERGY      -346.540795374269
MP2 TOTAL ENERGY:     -346.545480277 Eh
FINAL SINGLE POINT ENERGY      -346.545480276820
MP2 TOTAL ENERGY:     -346.533525858 Eh
FINAL SINGLE POINT ENERGY      -346.533525857809
MP2 TOTAL ENERGY:     -346.533816421 Eh
FINAL SINGLE POINT ENERGY      -346.533816421225

CARTESIAN COORDINATES (ANGSTROEM)
---------------------------------
  O      1.440523    1.129886    0.282193
  H      0.935897    0.457355   -0.245303
  C      1.642232    2.274101   -0.537822
  H      2.188838    3.013436    0.054705
  H      0.689039    2.722410   -0.854177
  H      2.232722    2.043027   -1.435579
  O      0.075667   -0.792074   -1.046803
  H     -0.806381   -0.841763   -0.617821
  C      0.727194   -2.061035   -0.930081
  H      1.805080   -1.880866   -0.921558
  H      0.466496   -2.712299   -1.774946
  H      0.454866   -2.571940    0.003289
  O     -2.187618   -0.485696    0.520451
  H     -2.611848    0.289513    0.120647
  C     -1.569715   -0.064132    1.747671
  H     -1.203480   -0.971245    2.233344
  H     -2.299229    0.416130    2.411285
  H     -0.722871    0.609099    1.568272

 Multiplicity           Mult            ....    1
 Number of Electrons    NEL             ....   54
 Basis Dimension        Dim             ....  258

ORBITAL ENERGIES
----------------

  NO   OCC          E(Eh)            E(eV)
   0   2.0000     -20.583219      -560.0979
   1   2.0000     -20.555011      -559.3303
   2   2.0000     -20.517686      -558.3146
   3   2.0000     -11.280148      -306.9484
   4   2.0000     -11.272928      -306.7520
   5   2.0000     -11.251391      -306.1659
   6   2.0000      -1.379435       -37.5363
   7   2.0000      -1.353900       -36.8415
   8   2.0000      -1.314482       -35.7689
   9   2.0000      -0.936291       -25.4778
  10   2.0000      -0.924348       -25.1528
  11   2.0000      -0.898016       -24.4363
  12   2.0000      -0.714122       -19.4323
  13   2.0000      -0.695868       -18.9355
  14   2.0000      -0.670658       -18.2495
  15   2.0000      -0.628861       -17.1122
  16   2.0000      -0.614914       -16.7326
  17   2.0000      -0.607318       -16.5260
  18   2.0000      -0.593210       -16.1421
  19   2.0000      -0.590709       -16.0740
  20   2.0000      -0.564377       -15.3575
  21   2.0000      -0.526361       -14.3230
  22   2.0000      -0.507510       -13.8100
  23   2.0000      -0.481366       -13.0986
  24   2.0000      -0.468127       -12.7384
  25   2.0000      -0.445052       -12.1105
  26   2.0000      -0.419490       -11.4149
  27   0.0000       0.120609         3.2819
  28   0.0000       0.153427         4.1750
  29   0.0000       0.169897         4.6231
  30   0.0000       0.178372         4.8537
  31   0.0000       0.208050         5.6613

MULLIKEN ATOMIC CHARGES
-----------------------
   0 O :   -0.539877
   1 H :    0.357415
   2 C :   -0.159694
   3 H :    0.118369
   4 H :    0.090997
   5 H :    0.105031
   6 O :   -0.543332
   7 H :    0.355010
   8 C :   -0.176101
   9 H :    0.136730
  10 H :    0.122377
  11 H :    0.117583
  12 O :   -0.528434
  13 H :    0.339847
  14 C :   -0.215603
  15 H :    0.132831
  16 H :    0.125787
  17 H :    0.161063
Sum of atomic charges:   -0.0000000

LOEWDIN ATOMIC CHARGES
----------------------
   0 O :   -0.119048
   1 H :    0.158963
   2 C :   -0.394558
   3 H :    0.104904
   4 H :    0.090084
   5 H :    0.094553
   6 O :   -0.086051
   7 H :    0.162704
   8 C :   -0.371043
   9 H :    0.110445
  10 H :    0.102004
  11 H :    0.101022
  12 O :   -0.090471
  13 H :    0.181808
  14 C :   -0.367635
  15 H :    0.112820
  16 H :    0.102705
  17 H :    0.106794

  Mayer bond orders larger than 0.100000
B(  0-O ,  1-H ) :   0.7679 B(  0-O ,  2-C ) :   0.9409 B(  2-C ,  3-H ) :   0.9411
B(  2-C ,  4-H ) :   0.9398 B(  2-C ,  5-H ) :   0.9394 B(  6-O ,  7-H ) :   0.7806
B(  6-O ,  8-C ) :   0.8846 B(  8-C ,  9-H ) :   0.9404 B(  8-C , 10-H ) :   0.9403
B(  8-C , 11-H ) :   0.9379 B( 12-O , 13-H ) :   0.8364 B( 12-O , 14-C ) :   0.8492
B( 14-C , 15-H ) :   0.9404 B( 14-C , 16-H ) :   0.9358 B( 14-C , 17-H ) :   0.9217

MP2 TOTAL ENERGY:     -346.546021484 Eh
FINAL SINGLE POINT ENERGY      -346.546021483628

DIPOLE MOMENT
-------------
                                X             Y             Z
Electronic contribution:     -1.84670      -0.61240      -0.47543
Nuclear contribution   :      1.04924       0.53522       0.50497
                        -----------------------------------------
Total Dipole Moment    :     -0.79746      -0.07718       0.02954
                        -----------------------------------------
Magnitude (a.u.)       :      0.80173
Magnitude (Debye)      :      2.03785

Rotational constants in cm-1:     0.083413     0.052795     0.036640
Rotational constants in MHz :  2500.659782  1582.749625  1098.425213

                             ****ORCA TERMINATED NORMALLY****
TOTAL RUN TIME: 0 days 0 hours 59 minutes 50 seconds 542 msec
