                         Program Version 4.2.0 -  RELEASE  -
|  1> # 5h2o.temelso.etal-orca.engrad-mp2.augccpvtz
|  2> ! MP2 aug-cc-pVTZ EnGrad TightSCF FrozenCore
|  3>
|  4> %pal
|  5>     nprocs 24
|  6> end
|  7>
|  8> %maxcore 8000
|  9>
| 10> %scf
| 11>     ConvForced true
| 12> end
| 13>
| 14> *xyz 0 1
| 15> O  -1.255930643  -1.929340235  -0.314275552
| 16> H  -1.796630643  -2.179540235  -1.073275552
| 17> H  -1.635730643  -1.072540235  -0.006475552
| 18> O  -2.212130643   0.494459765   0.494024448
| 19> H  -1.491830643   1.164759765   0.557024448
| 20> H  -2.693330643   0.565959765   1.326824448
| 21> O  -0.106530643   2.253359765   0.597324448
| 22> H   0.138569357   2.692659765   1.420624448
| 23> H   0.716569357   1.790059765   0.311024448
| 24> O   2.131969357   0.892159765  -0.169275552
| 25> H   1.923669357  -0.057640235  -0.336375552
| 26> H   2.580369357   1.187959765  -0.970975552
| 27> O   1.439769357  -1.701240235  -0.642875552
| 28> H   0.466269357  -1.825840235  -0.541575552
| 29> H   1.837369357  -2.415040235  -0.129975552
| 30> *
| 31>
| 32>
| 33> $new_job
| 34>
| 35> # 5h2o.temelso.etal-orca.engrad-mp2.augccpvtz
| 36> ! MP2 aug-cc-pVTZ EnGrad TightSCF FrozenCore
| 37>
| 38> %pal
| 39>     nprocs 24
| 40> end
| 41>
| 42> %maxcore 8000
| 43>
| 44> %scf
| 45>     ConvForced true
| 46> end
| 47>
| 48> *xyz 0 1
| 49> O  -1.382005168   0.607803273   0.955104102
| 50> H  -1.514805168  -0.190496727   0.385704102
| 51> H  -2.108705168   0.593203273   1.589204102
| 52> O  -1.458205168  -1.614796727  -0.601295898
| 53> H  -0.507805168  -1.877996727  -0.631195898
| 54> H  -1.708205168  -1.512096727  -1.528095898
| 55> O   1.246194832  -1.984996727  -0.674895898
| 56> H   1.749194832  -2.673096727  -0.222995898
| 57> H   1.498094832  -1.143196727  -0.225295898
| 58> O   1.550194832   0.374603273   0.675204102
| 59> H   1.401894832   1.178703273   0.142704102
| 60> H   0.723694832   0.339603273   1.185604102
| 61> O   0.103894832   2.599803273  -0.402995898
| 62> H   0.109094832   3.466503273   0.021504102
| 63> H  -0.596105168   2.098003273   0.058804102
| 64> *
| 65>
| 66>
| 67> $new_job
| 68>
| 69> # 5h2o.temelso.etal-orca.engrad-mp2.augccpvtz
| 70> ! MP2 aug-cc-pVTZ EnGrad TightSCF FrozenCore
| 71>
| 72> %pal
| 73>     nprocs 24
| 74> end
| 75>
| 76> %maxcore 8000
| 77>
| 78> %scf
| 79>     ConvForced true
| 80> end
| 81>
| 82> *xyz 0 1
| 83> O  -0.004202283   0.081625942   2.104272124
| 84> H   0.801497717  -0.057574058   1.577572124
| 85> H  -0.217302283   1.005025942   1.896072124
| 86> O   1.743697717   0.112225942  -0.276727876
| 87> H   1.325097717  -0.627774058  -0.784227876
| 88> H   2.660697717   0.142925942  -0.575127876
| 89> O  -1.755102283  -0.516574058  -0.107127876
| 90> H  -1.315402283  -0.531774058   0.766572124
| 91> H  -1.650302283   0.419325942  -0.350327876
| 92> O  -0.305402283   2.024025942  -0.139127876
| 93> H  -0.221002283   2.875225942  -0.585527876
| 94> H   0.515997717   1.534325942  -0.349327876
| 95> O   0.223697717  -1.745674058  -1.531927876
| 96> H  -0.597702283  -1.382574058  -1.116227876
| 97> H   0.243197717  -2.672774058  -1.263027876
| 98> *
| 99>
|100>
|101> $new_job
|102>
|103> # 5h2o.temelso.etal-orca.engrad-mp2.augccpvtz
|104> ! MP2 aug-cc-pVTZ EnGrad TightSCF FrozenCore
|105>
|106> %pal
|107>     nprocs 24
|108> end
|109>
|110> %maxcore 8000
|111>
|112> %scf
|113>     ConvForced true
|114> end
|115>
|116> *xyz 0 1
|117> O   0.059595236  -2.073611296  -0.309397414
|118> H  -0.057004764  -1.864511296   0.638502586
|119> H   0.013195236  -3.035511296  -0.372097414
|120> O  -0.157504764  -0.436211296   1.910402586
|121> H   0.604195236   0.001488704   1.451802586
|122> H   0.013995236  -0.347411296   2.855402586
|123> O   1.762695236   0.372988704   0.190602586
|124> H   1.650895236  -0.449511296  -0.311697414
|125> H   1.338595236   1.047388704  -0.383597414
|126> O   0.120895236   2.031388704  -1.338197414
|127> H  -0.665804764   1.487788704  -1.108497414
|128> H   0.120895236   2.080388704  -2.301797414
|129> O  -1.787504764   0.200188704  -0.468297414
|130> H  -1.641104764   0.205788704   0.492802586
|131> H  -1.348904764  -0.629911296  -0.724497414
|132> *
|133>
|134>
|135> $new_job
|136>
|137> # 5h2o.temelso.etal-orca.engrad-mp2.augccpvtz
|138> ! MP2 aug-cc-pVTZ EnGrad TightSCF FrozenCore
|139>
|140> %pal
|141>     nprocs 24
|142> end
|143>
|144> %maxcore 8000
|145>
|146> %scf
|147>     ConvForced true
|148> end
|149>
|150> *xyz 0 1
|151> O   1.842633852  -0.214450291  -0.134871974
|152> H   1.341333852  -0.880850291  -0.658371974
|153> H   2.760533852  -0.303550291  -0.418871974
|154> O   0.054533852  -1.911950291  -1.369671974
|155> H  -0.733766148  -1.422550291  -1.048371974
|156> H  -0.032466148  -2.789650291  -0.976771974
|157> O  -1.806966148  -0.274650291  -0.128171974
|158> H  -2.729166148  -0.419850291   0.115528026
|159> H  -1.316066148  -0.165650291   0.724128026
|160> O  -0.143466148   0.348849709   1.939928026
|161> H  -0.085466148   1.237649709   1.539128026
|162> H   0.692033852  -0.044050291   1.633128026
|163> O   0.054433852   2.152449709  -0.295871974
|164> H  -0.710266148   1.654249709  -0.625171974
|165> H   0.794733852   1.542849709  -0.464371974
|166> *
|167>
|168>
|169> $new_job
|170>
|171> # 5h2o.temelso.etal-orca.engrad-mp2.augccpvtz
|172> ! MP2 aug-cc-pVTZ EnGrad TightSCF FrozenCore
|173>
|174> %pal
|175>     nprocs 24
|176> end
|177>
|178> %maxcore 8000
|179>
|180> %scf
|181>     ConvForced true
|182> end
|183>
|184> *xyz 0 1
|185> O   1.480055497  -1.699467762  -0.557907291
|186> H   0.512555497  -1.868967762  -0.546707291
|187> H   1.683855497  -1.544867762  -1.489007291
|188> O  -1.296044503  -1.919267762  -0.364807291
|189> H  -1.514844503  -1.060567762   0.052792709
|190> H  -1.606844503  -2.582267762   0.264492709
|191> O  -1.408844503   0.611432238   0.875292709
|192> H  -1.888744503   0.840432238   1.680792709
|193> H  -0.446444503   0.576132238   1.128992709
|194> O   1.261555497   0.624032238   1.004492709
|195> H   1.245955497   1.310332238   0.313392709
|196> H   1.502855497  -0.191767762   0.514492709
|197> O   0.045355497   2.339432238  -0.990207291
|198> H  -0.069144503   3.286632238  -0.841807291
|199> H  -0.722144503   1.930832238  -0.551407291
|200> *
|201>
|202>
|203> $new_job
|204>
|205> # 5h2o.temelso.etal-orca.engrad-mp2.augccpvtz
|206> ! MP2 aug-cc-pVTZ EnGrad TightSCF FrozenCore
|207>
|208> %pal
|209>     nprocs 24
|210> end
|211>
|212> %maxcore 8000
|213>
|214> %scf
|215>     ConvForced true
|216> end
|217>
|218> *xyz 0 1
|219> O   1.347645749  -1.944003820  -0.062507012
|220> H   0.397445749  -2.040603820  -0.284707012
|221> H   1.551145749  -2.713303820   0.483192988
|222> O  -1.452154251  -1.885403820  -0.455707012
|223> H  -1.604954251  -0.944403820  -0.230307012
|224> H  -2.020454251  -2.371103820   0.154592988
|225> O  -1.450254251   0.795796180   0.441792988
|226> H  -2.010954251   1.157296180   1.139292988
|227> H  -0.547154251   0.684196180   0.848692988
|228> O   1.136245749   0.604296180   1.069692988
|229> H   1.329245749   1.235996180   0.353092988
|230> H   1.379745749  -0.273303820   0.704292988
|231> O   0.509545749   2.420196180  -1.085207012
|232> H   0.441545749   3.356696180  -0.859507012
|233> H  -0.360654251   2.053296180  -0.849207012
|234> *
|235>
|236>                          ****END OF INPUT****
 Total Charge           Charge          ....    0
 Multiplicity           Mult            ....    1
 Number of Electrons    NEL             ....   50
MP2 TOTAL ENERGY:     -381.704606608 Eh
FINAL SINGLE POINT ENERGY      -381.704606608424
MP2 TOTAL ENERGY:     -381.702389416 Eh
FINAL SINGLE POINT ENERGY      -381.702389415821
MP2 TOTAL ENERGY:     -381.702022812 Eh
FINAL SINGLE POINT ENERGY      -381.702022812003
MP2 TOTAL ENERGY:     -381.701723917 Eh
FINAL SINGLE POINT ENERGY      -381.701723916741
MP2 TOTAL ENERGY:     -381.700590812 Eh
FINAL SINGLE POINT ENERGY      -381.700590812014
MP2 TOTAL ENERGY:     -381.699633145 Eh
FINAL SINGLE POINT ENERGY      -381.699633144663

CARTESIAN COORDINATES (ANGSTROEM)
---------------------------------
  O      1.347646   -1.944004   -0.062507
  H      0.397446   -2.040604   -0.284707
  H      1.551146   -2.713304    0.483193
  O     -1.452154   -1.885404   -0.455707
  H     -1.604954   -0.944404   -0.230307
  H     -2.020454   -2.371104    0.154593
  O     -1.450254    0.795796    0.441793
  H     -2.010954    1.157296    1.139293
  H     -0.547154    0.684196    0.848693
  O      1.136246    0.604296    1.069693
  H      1.329246    1.235996    0.353093
  H      1.379746   -0.273304    0.704293
  O      0.509546    2.420196   -1.085207
  H      0.441546    3.356696   -0.859507
  H     -0.360654    2.053296   -0.849207

 Multiplicity           Mult            ....    1
 Number of Electrons    NEL             ....   50
 Basis Dimension        Dim             ....  460

ORBITAL ENERGIES
----------------

  NO   OCC          E(Eh)            E(eV)
   0   2.0000     -20.572488      -559.8059
   1   2.0000     -20.567056      -559.6580
   2   2.0000     -20.566407      -559.6404
   3   2.0000     -20.558716      -559.4311
   4   2.0000     -20.546426      -559.0967
   5   2.0000      -1.366210       -37.1765
   6   2.0000      -1.352742       -36.8100
   7   2.0000      -1.347435       -36.6656
   8   2.0000      -1.342440       -36.5296
   9   2.0000      -1.326060       -36.0839
  10   2.0000      -0.737466       -20.0675
  11   2.0000      -0.722333       -19.6557
  12   2.0000      -0.710638       -19.3374
  13   2.0000      -0.707771       -19.2594
  14   2.0000      -0.699973       -19.0472
  15   2.0000      -0.617247       -16.7961
  16   2.0000      -0.598757       -16.2930
  17   2.0000      -0.588286       -16.0081
  18   2.0000      -0.585125       -15.9221
  19   2.0000      -0.558130       -15.1875
  20   2.0000      -0.521044       -14.1783
  21   2.0000      -0.512078       -13.9344
  22   2.0000      -0.506744       -13.7892
  23   2.0000      -0.500234       -13.6121
  24   2.0000      -0.490267       -13.3408
  25   0.0000       0.021196         0.5768
  26   0.0000       0.032540         0.8855
  27   0.0000       0.041997         1.1428
  28   0.0000       0.050799         1.3823
  29   0.0000       0.059026         1.6062

MULLIKEN ATOMIC CHARGES
-----------------------
   0 O :   -0.484158
   1 H :    0.299095
   2 H :    0.185405
   3 O :   -0.484894
   4 H :    0.297556
   5 H :    0.192983
   6 O :   -0.489132
   7 H :    0.134077
   8 H :    0.312314
   9 O :   -0.496833
  10 H :    0.266410
  11 H :    0.281038
  12 O :   -0.490185
  13 H :    0.195336
  14 H :    0.280989
Sum of atomic charges:    0.0000000

LOEWDIN ATOMIC CHARGES
----------------------
   0 O :    1.098583
   1 H :   -0.629787
   2 H :   -0.457024
   3 O :    1.097128
   4 H :   -0.628036
   5 H :   -0.458094
   6 O :    1.107742
   7 H :   -0.438444
   8 H :   -0.664383
   9 O :    1.117488
  10 H :   -0.554406
  11 H :   -0.620584
  12 O :    1.073403
  13 H :   -0.471005
  14 H :   -0.572580

  Mayer bond orders larger than 0.100000
B(  0-O ,  1-H ) :   0.8226 B(  0-O ,  2-H ) :   0.9888 B(  3-O ,  4-H ) :   0.8157
B(  3-O ,  5-H ) :   0.9851 B(  6-O ,  7-H ) :   1.0335 B(  6-O ,  8-H ) :   0.7153
B(  8-H ,  9-O ) :   0.1451 B(  9-O , 10-H ) :   0.9042 B(  9-O , 11-H ) :   0.8232
B( 12-O , 13-H ) :   0.9800 B( 12-O , 14-H ) :   0.8510

MP2 TOTAL ENERGY:     -381.698499187 Eh
FINAL SINGLE POINT ENERGY      -381.698499186511

DIPOLE MOMENT
-------------
                                X             Y             Z
Electronic contribution:      0.35621      -0.04416      -0.39202
Nuclear contribution   :     -1.35433       0.13567       1.36782
                        -----------------------------------------
Total Dipole Moment    :     -0.99812       0.09151       0.97580
                        -----------------------------------------
Magnitude (a.u.)       :      1.39886
Magnitude (Debye)      :      3.55561

Rotational constants in cm-1:     0.091273     0.053866     0.041611
Rotational constants in MHz :  2736.310298  1614.852455  1247.467071

                             ****ORCA TERMINATED NORMALLY****
TOTAL RUN TIME: 0 days 1 hours 3 minutes 51 seconds 25 msec
