                         Program Version 4.2.0 -  RELEASE  -
|  1> # 6h2o.temelso.etal-orca.engrad-mp2.augccpvtz
|  2> ! MP2 aug-cc-pVTZ EnGrad TightSCF FrozenCore
|  3>
|  4> %pal
|  5>     nprocs 24
|  6> end
|  7>
|  8> %maxcore 8000
|  9>
| 10> %scf
| 11>     ConvForced true
| 12> end
| 13>
| 14> *xyz 0 1
| 15> O  -1.735218018  -1.130833854   0.324878534
| 16> H  -1.545018018  -1.255833854  -0.620921466
| 17> H  -1.841918018  -0.154133854   0.359478534
| 18> O  -1.436318018   1.618866146  -0.083021466
| 19> H  -1.174318018   1.325966146  -0.973521466
| 20> H  -0.586218018   1.758666146   0.372278534
| 21> O  -0.545718018  -0.229233854  -2.185321466
| 22> H  -0.483518018  -0.316433854  -3.144121466
| 23> H   0.381581982  -0.297333854  -1.855121466
| 24> O   1.874181982  -0.380733854  -0.904521466
| 25> H   1.984181982   0.477966146  -0.464221466
| 26> H   1.652881982  -0.959333854  -0.151521466
| 27> O   0.638681982  -1.290433854   1.521378534
| 28> H  -0.283618018  -1.332033854   1.140778534
| 29> H   0.676881982  -1.977133854   2.197878534
| 30> O   1.128281982   1.427866146   1.292178534
| 31> H   1.436881982   1.958866146   2.036578534
| 32> H   0.990381982   0.524766146   1.648978534
| 33> *
| 34>
| 35>
| 36> $new_job
| 37>
| 38> # 6h2o.temelso.etal-orca.engrad-mp2.augccpvtz
| 39> ! MP2 aug-cc-pVTZ EnGrad TightSCF FrozenCore
| 40>
| 41> %pal
| 42>     nprocs 24
| 43> end
| 44>
| 45> %maxcore 8000
| 46>
| 47> %scf
| 48>     ConvForced true
| 49> end
| 50>
| 51> *xyz 0 1
| 52> O   0.779349480  -1.245089435  -1.332072868
| 53> H   1.631449480  -0.884489435  -0.991072868
| 54> H   1.019049480  -1.859789435  -2.035972868
| 55> O  -0.831350520   1.168010565  -1.169772868
| 56> H  -0.382550520   0.372510565  -1.509272868
| 57> H  -1.684550520   0.821910565  -0.834772868
| 58> O   0.664149480   1.379010565   1.040727132
| 59> H   0.080349480   1.447910565   0.235127132
| 60> H   0.598349480   2.232810565   1.485327132
| 61> O  -0.593150520  -1.279989435   1.246327132
| 62> H  -0.149450520  -1.504589435   0.408127132
| 63> H  -0.159050520  -0.445589435   1.498327132
| 64> O   2.815449480   0.072310565  -0.083972868
| 65> H   2.196349480   0.644310565   0.421527132
| 66> H   3.367449480  -0.351489435   0.585027132
| 67> O  -2.877150520  -0.046089435   0.292627132
| 68> H  -2.199650520  -0.625989435   0.708427132
| 69> H  -3.639850520  -0.612089435   0.126627132
| 70> *
| 71>
| 72>
| 73> $new_job
| 74>
| 75> # 6h2o.temelso.etal-orca.engrad-mp2.augccpvtz
| 76> ! MP2 aug-cc-pVTZ EnGrad TightSCF FrozenCore
| 77>
| 78> %pal
| 79>     nprocs 24
| 80> end
| 81>
| 82> %maxcore 8000
| 83>
| 84> %scf
| 85>     ConvForced true
| 86> end
| 87>
| 88> *xyz 0 1
| 89> O  -2.460422053  -1.194417099   0.277657794
| 90> H  -3.102722053  -1.699217099  -0.235542206
| 91> H  -1.585122053  -1.380417099  -0.149142206
| 92> O  -0.060122053  -1.358117099  -0.943342206
| 93> H   0.723277947  -1.615517099  -0.413042206
| 94> H   0.095677947  -0.416317099  -1.132842206
| 95> O   2.239477947  -1.683517099   0.629857794
| 96> H   3.047677947  -2.065317099   0.266357794
| 97> H   2.426477947  -0.723117099   0.705557794
| 98> O   2.429577947   1.090882901   0.629857794
| 99> H   1.626077947   1.374282901   0.144957794
|100> H   2.436777947   1.620182901   1.436357794
|101> O  -2.292522053   1.502082901   0.282457794
|102> H  -2.476522053   0.529782901   0.311357794
|103> H  -2.454922053   1.813482901   1.181157794
|104> O   0.137777947   1.563782901  -0.880142206
|105> H   0.107377947   2.181482901  -1.621042206
|106> H  -0.745122053   1.639582901  -0.436142206
|107> *
|108>
|109>
|110> $new_job
|111>
|112> # 6h2o.temelso.etal-orca.engrad-mp2.augccpvtz
|113> ! MP2 aug-cc-pVTZ EnGrad TightSCF FrozenCore
|114>
|115> %pal
|116>     nprocs 24
|117> end
|118>
|119> %maxcore 8000
|120>
|121> %scf
|122>     ConvForced true
|123> end
|124>
|125> *xyz 0 1
|126> O   2.172877856   1.509648730  -0.252314015
|127> H   3.063977856   1.775048730   0.005885985
|128> H   2.266077856   0.573648730  -0.562714015
|129> O   2.203977856  -1.118751270  -0.873514015
|130> H   2.024077856  -1.446051270  -1.763214015
|131> H   1.428077856  -1.411651270  -0.330014015
|132> O   0.085777856  -1.608851270   0.743785985
|133> H   0.017777856  -0.742851270   1.182585985
|134> H  -0.757622144  -1.676251270   0.248185985
|135> O  -2.271822144  -1.420251270  -0.761914015
|136> H  -3.114222144  -1.792151270  -0.473314015
|137> H  -2.372422144  -0.449551270  -0.648814015
|138> O  -2.230822144   1.301848730  -0.240414015
|139> H  -2.111722144   1.939648730  -0.955014015
|140> H  -1.434322144   1.403648730   0.322385985
|141> O   0.040077856   1.251548730   1.377085985
|142> H   0.117277856   1.725948730   2.213685985
|143> H   0.871977856   1.446848730   0.875985985
|144> *
|145>
|146>
|147> $new_job
|148>
|149> # 6h2o.temelso.etal-orca.engrad-mp2.augccpvtz
|150> ! MP2 aug-cc-pVTZ EnGrad TightSCF FrozenCore
|151>
|152> %pal
|153>     nprocs 24
|154> end
|155>
|156> %maxcore 8000
|157>
|158> %scf
|159>     ConvForced true
|160> end
|161>
|162> *xyz 0 1
|163> O   0.161625757   2.680092658   0.338838928
|164> H   0.154525757   3.147592658   1.182638928
|165> H  -0.714274243   2.228192658   0.297038928
|166> O  -2.377574243  -1.256207342   0.342238928
|167> H  -1.571374243  -1.760607342   0.080338928
|168> H  -2.681874243  -1.684207342   1.151438928
|169> O   2.375925757   1.255092658  -0.343961072
|170> H   2.680125757   1.681292658  -1.154161072
|171> H   1.571325757   1.761592658  -0.081261072
|172> O  -0.161274243  -2.678307342  -0.340461072
|173> H   0.715325757  -2.227907342  -0.297761072
|174> H  -0.155074243  -3.144207342  -1.185161072
|175> O   2.272025757  -1.461807342  -0.282761072
|176> H   2.883725757  -1.705407342   0.422238928
|177> H   2.300125757  -0.476007342  -0.309861072
|178> O  -2.270874243   1.461192658   0.286138928
|179> H  -2.881074243   1.703292658  -0.420661072
|180> H  -2.299174243   0.475492658   0.314638928
|181> *
|182>
|183>
|184> $new_job
|185>
|186> # 6h2o.temelso.etal-orca.engrad-mp2.augccpvtz
|187> ! MP2 aug-cc-pVTZ EnGrad TightSCF FrozenCore
|188>
|189> %pal
|190>     nprocs 24
|191> end
|192>
|193> %maxcore 8000
|194>
|195> %scf
|196>     ConvForced true
|197> end
|198>
|199> *xyz 0 1
|200> O  -0.811455384   1.781064622   0.281737248
|201> H   0.070144616   1.745064622  -0.182762752
|202> H  -1.079855384   2.706964622   0.233137248
|203> O  -0.182855384  -1.951135378   0.352537248
|204> H  -0.101755384  -1.429735378   1.174037248
|205> H  -0.990455384  -1.582835378  -0.055862752
|206> O   1.546844616   1.531264622  -0.948962752
|207> H   2.327544616   1.766464622  -0.431662752
|208> H   1.667444616   0.566064622  -1.143462752
|209> O   1.810544616  -1.126235378  -1.276062752
|210> H   1.715444616  -1.570935378  -2.126762752
|211> H   1.101544616  -1.512035378  -0.698862752
|212> O  -0.050055384   0.056464622   2.388637248
|213> H  -0.548455384   0.107664622   3.213037248
|214> H  -0.403855384   0.774864622   1.828337248
|215> O  -2.230755384  -0.395235378  -0.839162752
|216> H  -1.885755384   0.453964622  -0.496662752
|217> H  -3.177955384  -0.377535378  -0.657262752
|218> *
|219>
|220>
|221> $new_job
|222>
|223> # 6h2o.temelso.etal-orca.engrad-mp2.augccpvtz
|224> ! MP2 aug-cc-pVTZ EnGrad TightSCF FrozenCore
|225>
|226> %pal
|227>     nprocs 24
|228> end
|229>
|230> %maxcore 8000
|231>
|232> %scf
|233>     ConvForced true
|234> end
|235>
|236> *xyz 0 1
|237> O   0.058018879  -2.426050180   1.035099009
|238> H   0.302618879  -3.358750180   1.047599009
|239> H   0.906818879  -1.939250180   0.908999009
|240> O   2.388118879  -1.065850180   0.656099009
|241> H   2.307118879  -0.278950180   0.066699009
|242> H   2.849618879  -0.736250180   1.436699009
|243> O   2.168818879   1.107449820  -0.975400991
|244> H   1.359518879   1.656549820  -0.852500991
|245> H   2.222118879   0.947349820  -1.925000991
|246> O  -2.177281121  -1.457150180  -0.187500991
|247> H  -2.225281121  -1.842250180  -1.070500991
|248> H  -1.366281121  -1.844550180   0.216999009
|249> O  -0.057981121   2.598849820  -0.479800991
|250> H  -0.312181121   3.378149820  -0.987800991
|251> H  -0.902981121   2.121849820  -0.301800991
|252> O  -2.380181121   1.256149820  -0.004700991
|253> H  -2.308581121   0.274749820  -0.072500991
|254> H  -2.824781121   1.408649820   0.837899009
|255> *
|256>
|257>
|258> $new_job
|259>
|260> # 6h2o.temelso.etal-orca.engrad-mp2.augccpvtz
|261> ! MP2 aug-cc-pVTZ EnGrad TightSCF FrozenCore
|262>
|263> %pal
|264>     nprocs 24
|265> end
|266>
|267> %maxcore 8000
|268>
|269> %scf
|270>     ConvForced true
|271> end
|272>
|273> *xyz 0 1
|274> O  -2.237466189   1.407374575   0.800517938
|275> H  -2.351666189   1.548974575   1.748217938
|276> H  -2.258866189   0.428674575   0.689217938
|277> O  -2.190166189  -1.298825425   0.478517938
|278> H  -1.475066189  -1.682825425  -0.080782062
|279> H  -2.958866189  -1.861025425   0.328917938
|280> O  -0.158266189  -2.356925425  -1.005582062
|281> H   0.738533811  -2.053825425  -0.726482062
|282> H  -0.145666189  -2.296725425  -1.968182062
|283> O  -0.010766189   2.552874575  -0.274382062
|284> H  -0.262366189   2.791174575  -1.174582062
|285> H  -0.821566189   2.143774575   0.112217938
|286> O   2.316833811  -1.490725425  -0.254882062
|287> H   2.674133811  -1.903625425   0.540717938
|288> H   2.340633811  -0.523825425  -0.066582062
|289> O   2.282633811   1.181874575   0.282417938
|290> H   1.465933811   1.685974575   0.057417938
|291> H   3.010333811   1.792374575   0.117517938
|292> *
|293>
|294>                          ****END OF INPUT****
 Total Charge           Charge          ....    0
 Multiplicity           Mult            ....    1
 Number of Electrons    NEL             ....   60
MP2 TOTAL ENERGY:     -458.050183223 Eh
FINAL SINGLE POINT ENERGY      -458.050183223253
MP2 TOTAL ENERGY:     -458.050053575 Eh
FINAL SINGLE POINT ENERGY      -458.050053574626
MP2 TOTAL ENERGY:     -458.049422199 Eh
FINAL SINGLE POINT ENERGY      -458.049422198981
MP2 TOTAL ENERGY:     -458.048969975 Eh
FINAL SINGLE POINT ENERGY      -458.048969974510
MP2 TOTAL ENERGY:     -458.047662367 Eh
FINAL SINGLE POINT ENERGY      -458.047662367447
MP2 TOTAL ENERGY:     -458.048070388 Eh
FINAL SINGLE POINT ENERGY      -458.048070388233
MP2 TOTAL ENERGY:     -458.046120270 Eh
FINAL SINGLE POINT ENERGY      -458.046120269670

CARTESIAN COORDINATES (ANGSTROEM)
---------------------------------
  O     -2.237466    1.407375    0.800518
  H     -2.351666    1.548975    1.748218
  H     -2.258866    0.428675    0.689218
  O     -2.190166   -1.298825    0.478518
  H     -1.475066   -1.682825   -0.080782
  H     -2.958866   -1.861025    0.328918
  O     -0.158266   -2.356925   -1.005582
  H      0.738534   -2.053825   -0.726482
  H     -0.145666   -2.296725   -1.968182
  O     -0.010766    2.552875   -0.274382
  H     -0.262366    2.791175   -1.174582
  H     -0.821566    2.143775    0.112218
  O      2.316834   -1.490725   -0.254882
  H      2.674134   -1.903625    0.540718
  H      2.340634   -0.523825   -0.066582
  O      2.282634    1.181875    0.282418
  H      1.465934    1.685975    0.057418
  H      3.010334    1.792375    0.117518

 Multiplicity           Mult            ....    1
 Number of Electrons    NEL             ....   60
 Basis Dimension        Dim             ....  552

ORBITAL ENERGIES
----------------

  NO   OCC          E(Eh)            E(eV)
   0   2.0000     -20.554631      -559.3199
   1   2.0000     -20.554615      -559.3195
   2   2.0000     -20.554385      -559.3132
   3   2.0000     -20.554312      -559.3113
   4   2.0000     -20.554285      -559.3105
   5   2.0000     -20.554202      -559.3083
   6   2.0000      -1.355255       -36.8784
   7   2.0000      -1.347894       -36.6781
   8   2.0000      -1.347593       -36.6699
   9   2.0000      -1.332429       -36.2572
  10   2.0000      -1.331799       -36.2401
  11   2.0000      -1.323902       -36.0252
  12   2.0000      -0.715244       -19.4628
  13   2.0000      -0.714553       -19.4440
  14   2.0000      -0.712732       -19.3944
  15   2.0000      -0.712182       -19.3795
  16   2.0000      -0.710123       -19.3234
  17   2.0000      -0.708666       -19.2838
  18   2.0000      -0.623978       -16.9793
  19   2.0000      -0.605289       -16.4708
  20   2.0000      -0.601870       -16.3777
  21   2.0000      -0.561290       -15.2735
  22   2.0000      -0.556833       -15.1522
  23   2.0000      -0.537643       -14.6300
  24   2.0000      -0.506721       -13.7886
  25   2.0000      -0.504758       -13.7352
  26   2.0000      -0.500740       -13.6258
  27   2.0000      -0.498993       -13.5783
  28   2.0000      -0.497899       -13.5485
  29   2.0000      -0.496675       -13.5152
  30   0.0000       0.025691         0.6991
  31   0.0000       0.036746         0.9999
  32   0.0000       0.041562         1.1310
  33   0.0000       0.042339         1.1521
  34   0.0000       0.052610         1.4316

MULLIKEN ATOMIC CHARGES
-----------------------
   0 O :   -0.444675
   1 H :    0.176451
   2 H :    0.271954
   3 O :   -0.451081
   4 H :    0.277211
   5 H :    0.169819
   6 O :   -0.467677
   7 H :    0.284613
   8 H :    0.184277
   9 O :   -0.467649
  10 H :    0.183713
  11 H :    0.284086
  12 O :   -0.447189
  13 H :    0.176929
  14 H :    0.272829
  15 O :   -0.450727
  16 H :    0.277059
  17 H :    0.170058
Sum of atomic charges:   -0.0000000

LOEWDIN ATOMIC CHARGES
----------------------
   0 O :    1.112667
   1 H :   -0.443227
   2 H :   -0.671500
   3 O :    1.116380
   4 H :   -0.666608
   5 H :   -0.446513
   6 O :    1.112778
   7 H :   -0.665704
   8 H :   -0.446979
   9 O :    1.112808
  10 H :   -0.446953
  11 H :   -0.666858
  12 O :    1.112088
  13 H :   -0.443844
  14 H :   -0.671417
  15 O :    1.116174
  16 H :   -0.666836
  17 H :   -0.446455

  Mayer bond orders larger than 0.100000
B(  0-O ,  1-H ) :   0.9916 B(  0-O ,  2-H ) :   0.8323 B(  0-O , 11-H ) :   0.1145
B(  2-H ,  3-O ) :   0.1062 B(  3-O ,  4-H ) :   0.8263 B(  3-O ,  5-H ) :   1.0046
B(  4-H ,  6-O ) :   0.1167 B(  6-O ,  7-H ) :   0.8130 B(  6-O ,  8-H ) :   0.9933
B(  7-H , 12-O ) :   0.1144 B(  9-O , 10-H ) :   0.9944 B(  9-O , 11-H ) :   0.8137
B(  9-O , 16-H ) :   0.1161 B( 12-O , 13-H ) :   0.9916 B( 12-O , 14-H ) :   0.8307
B( 14-H , 15-O ) :   0.1063 B( 15-O , 16-H ) :   0.8267 B( 15-O , 17-H ) :   1.0046

MP2 TOTAL ENERGY:     -458.045971064 Eh
FINAL SINGLE POINT ENERGY      -458.045971064168

DIPOLE MOMENT
-------------
                                X             Y             Z
Electronic contribution:      0.01234      -0.01969       0.12233
Nuclear contribution   :     -0.04170       0.06476      -0.39587
                        -----------------------------------------
Total Dipole Moment    :     -0.02936       0.04507      -0.27354
                        -----------------------------------------
Magnitude (a.u.)       :      0.27878
Magnitude (Debye)      :      0.70859

Rotational constants in cm-1:     0.044543     0.040261     0.022830
Rotational constants in MHz :  1335.375067  1206.995175   684.433158

                             ****ORCA TERMINATED NORMALLY****
TOTAL RUN TIME: 0 days 2 hours 13 minutes 28 seconds 918 msec
