                         Program Version 4.2.0 -  RELEASE  -
|  1> # 140h2o.sphere.gfn2.md.500k.prod1.3h2o.dset.1h2o.dset-orca.engrad-mp2.def2tzvp-14000.to.14026
|  2> ! MP2 def2-TZVP EnGrad TightSCF FrozenCore
|  3>
|  4> %pal
|  5>     nprocs 12
|  6> end
|  7>
|  8> %maxcore 8000
|  9>
| 10> %scf
| 11>     ConvForced true
| 12> end
| 13>
| 14> *xyz 0 1
| 15> O  -0.039786509   0.059782429   0.027779676
| 16> H  -0.143492223  -0.886150005   0.122829831
| 17> H   0.775086074  -0.062870548  -0.563820327
| 18> *
| 19>
| 20>
| 21> $new_job
| 22>
| 23> # 140h2o.sphere.gfn2.md.500k.prod1.3h2o.dset.1h2o.dset-orca.engrad-mp2.def2tzvp-14000.to.14026
| 24> ! MP2 def2-TZVP EnGrad TightSCF FrozenCore
| 25>
| 26> %pal
| 27>     nprocs 12
| 28> end
| 29>
| 30> %maxcore 8000
| 31>
| 32> %scf
| 33>     ConvForced true
| 34> end
| 35>
| 36> *xyz 0 1
| 37> O   0.042491252   0.012667192  -0.043127013
| 38> H   0.180584058   0.042328852   0.924281756
| 39> H  -0.855114559  -0.243415127  -0.239658827
| 40> *
| 41>
| 42>
| 43> $new_job
| 44>
| 45> # 140h2o.sphere.gfn2.md.500k.prod1.3h2o.dset.1h2o.dset-orca.engrad-mp2.def2tzvp-14000.to.14026
| 46> ! MP2 def2-TZVP EnGrad TightSCF FrozenCore
| 47>
| 48> %pal
| 49>     nprocs 12
| 50> end
| 51>
| 52> %maxcore 8000
| 53>
| 54> %scf
| 55>     ConvForced true
| 56> end
| 57>
| 58> *xyz 0 1
| 59> O   0.048540635   0.007365656   0.042122295
| 60> H  -0.074252630  -0.660254446  -0.621071367
| 61> H  -0.696309248   0.543327804  -0.047602092
| 62> *
| 63>
| 64>
| 65> $new_job
| 66>
| 67> # 140h2o.sphere.gfn2.md.500k.prod1.3h2o.dset.1h2o.dset-orca.engrad-mp2.def2tzvp-14000.to.14026
| 68> ! MP2 def2-TZVP EnGrad TightSCF FrozenCore
| 69>
| 70> %pal
| 71>     nprocs 12
| 72> end
| 73>
| 74> %maxcore 8000
| 75>
| 76> %scf
| 77>     ConvForced true
| 78> end
| 79>
| 80> *xyz 0 1
| 81> O  -0.045031626   0.032691358  -0.046182882
| 82> H   0.084046964   0.049835265   0.977098524
| 83> H   0.630810880  -0.568796625  -0.243964976
| 84> *
| 85>
| 86>
| 87> $new_job
| 88>
| 89> # 140h2o.sphere.gfn2.md.500k.prod1.3h2o.dset.1h2o.dset-orca.engrad-mp2.def2tzvp-14000.to.14026
| 90> ! MP2 def2-TZVP EnGrad TightSCF FrozenCore
| 91>
| 92> %pal
| 93>     nprocs 12
| 94> end
| 95>
| 96> %maxcore 8000
| 97>
| 98> %scf
| 99>     ConvForced true
|100> end
|101>
|102> *xyz 0 1
|103> O   0.004847318  -0.071137929   0.001417024
|104> H   0.568051977   0.601788238  -0.401070979
|105> H  -0.645001081   0.527496036   0.378576325
|106> *
|107>
|108>
|109> $new_job
|110>
|111> # 140h2o.sphere.gfn2.md.500k.prod1.3h2o.dset.1h2o.dset-orca.engrad-mp2.def2tzvp-14000.to.14026
|112> ! MP2 def2-TZVP EnGrad TightSCF FrozenCore
|113>
|114> %pal
|115>     nprocs 12
|116> end
|117>
|118> %maxcore 8000
|119>
|120> %scf
|121>     ConvForced true
|122> end
|123>
|124> *xyz 0 1
|125> O  -0.058525568   0.029332514   0.007145641
|126> H   0.673624789   0.216054707  -0.677527862
|127> H   0.255443629  -0.681695853   0.564093857
|128> *
|129>
|130>
|131> $new_job
|132>
|133> # 140h2o.sphere.gfn2.md.500k.prod1.3h2o.dset.1h2o.dset-orca.engrad-mp2.def2tzvp-14000.to.14026
|134> ! MP2 def2-TZVP EnGrad TightSCF FrozenCore
|135>
|136> %pal
|137>     nprocs 12
|138> end
|139>
|140> %maxcore 8000
|141>
|142> %scf
|143>     ConvForced true
|144> end
|145>
|146> *xyz 0 1
|147> O   0.017867216   0.004343302  -0.068716854
|148> H   0.343773018   0.551723276   0.630829553
|149> H  -0.627407454  -0.620671347   0.460021182
|150> *
|151>
|152>
|153> $new_job
|154>
|155> # 140h2o.sphere.gfn2.md.500k.prod1.3h2o.dset.1h2o.dset-orca.engrad-mp2.def2tzvp-14000.to.14026
|156> ! MP2 def2-TZVP EnGrad TightSCF FrozenCore
|157>
|158> %pal
|159>     nprocs 12
|160> end
|161>
|162> %maxcore 8000
|163>
|164> %scf
|165>     ConvForced true
|166> end
|167>
|168> *xyz 0 1
|169> O  -0.033473963  -0.042443968  -0.049850047
|170> H   0.264197115   0.984090603   0.021099238
|171> H   0.267187762  -0.310310723   0.770248994
|172> *
|173>
|174>
|175> $new_job
|176>
|177> # 140h2o.sphere.gfn2.md.500k.prod1.3h2o.dset.1h2o.dset-orca.engrad-mp2.def2tzvp-14000.to.14026
|178> ! MP2 def2-TZVP EnGrad TightSCF FrozenCore
|179>
|180> %pal
|181>     nprocs 12
|182> end
|183>
|184> %maxcore 8000
|185>
|186> %scf
|187>     ConvForced true
|188> end
|189>
|190> *xyz 0 1
|191> O  -0.009456994   0.020171223  -0.062454221
|192> H  -0.222064999   0.479447621   0.756467761
|193> H   0.372190737  -0.799657186   0.234966349
|194> *
|195>
|196>
|197> $new_job
|198>
|199> # 140h2o.sphere.gfn2.md.500k.prod1.3h2o.dset.1h2o.dset-orca.engrad-mp2.def2tzvp-14000.to.14026
|200> ! MP2 def2-TZVP EnGrad TightSCF FrozenCore
|201>
|202> %pal
|203>     nprocs 12
|204> end
|205>
|206> %maxcore 8000
|207>
|208> %scf
|209>     ConvForced true
|210> end
|211>
|212> *xyz 0 1
|213> O  -0.024032677   0.004809116  -0.054653029
|214> H   0.692287083  -0.551688036   0.185083797
|215> H  -0.310778590   0.475345379   0.682509722
|216> *
|217>
|218>
|219> $new_job
|220>
|221> # 140h2o.sphere.gfn2.md.500k.prod1.3h2o.dset.1h2o.dset-orca.engrad-mp2.def2tzvp-14000.to.14026
|222> ! MP2 def2-TZVP EnGrad TightSCF FrozenCore
|223>
|224> %pal
|225>     nprocs 12
|226> end
|227>
|228> %maxcore 8000
|229>
|230> %scf
|231>     ConvForced true
|232> end
|233>
|234> *xyz 0 1
|235> O  -0.057769938  -0.015261920  -0.009565058
|236> H   0.207355953   0.818729858  -0.139225706
|237> H   0.709717171  -0.576453386   0.291066924
|238> *
|239>
|240>
|241> $new_job
|242>
|243> # 140h2o.sphere.gfn2.md.500k.prod1.3h2o.dset.1h2o.dset-orca.engrad-mp2.def2tzvp-14000.to.14026
|244> ! MP2 def2-TZVP EnGrad TightSCF FrozenCore
|245>
|246> %pal
|247>     nprocs 12
|248> end
|249>
|250> %maxcore 8000
|251>
|252> %scf
|253>     ConvForced true
|254> end
|255>
|256> *xyz 0 1
|257> O   0.041927672  -0.019006900  -0.054284953
|258> H  -0.159005099   0.895129642   0.228456052
|259> H  -0.506578802  -0.593403218   0.633294411
|260> *
|261>
|262>
|263> $new_job
|264>
|265> # 140h2o.sphere.gfn2.md.500k.prod1.3h2o.dset.1h2o.dset-orca.engrad-mp2.def2tzvp-14000.to.14026
|266> ! MP2 def2-TZVP EnGrad TightSCF FrozenCore
|267>
|268> %pal
|269>     nprocs 12
|270> end
|271>
|272> %maxcore 8000
|273>
|274> %scf
|275>     ConvForced true
|276> end
|277>
|278> *xyz 0 1
|279> O  -0.037815196   0.033235339   0.043479685
|280> H   0.433734863   0.374649116  -0.676664189
|281> H   0.166565242  -0.902245937  -0.013557254
|282> *
|283>
|284>
|285> $new_job
|286>
|287> # 140h2o.sphere.gfn2.md.500k.prod1.3h2o.dset.1h2o.dset-orca.engrad-mp2.def2tzvp-14000.to.14026
|288> ! MP2 def2-TZVP EnGrad TightSCF FrozenCore
|289>
|290> %pal
|291>     nprocs 12
|292> end
|293>
|294> %maxcore 8000
|295>
|296> %scf
|297>     ConvForced true
|298> end
|299>
|300> *xyz 0 1
|301> O  -0.042472122   0.036366076  -0.022430819
|302> H   0.278104060  -0.867023668  -0.421474436
|303> H   0.396122761   0.289727728   0.777554115
|304> *
|305>
|306>
|307> $new_job
|308>
|309> # 140h2o.sphere.gfn2.md.500k.prod1.3h2o.dset.1h2o.dset-orca.engrad-mp2.def2tzvp-14000.to.14026
|310> ! MP2 def2-TZVP EnGrad TightSCF FrozenCore
|311>
|312> %pal
|313>     nprocs 12
|314> end
|315>
|316> %maxcore 8000
|317>
|318> %scf
|319>     ConvForced true
|320> end
|321>
|322> *xyz 0 1
|323> O  -0.007826050  -0.063052993  -0.015904234
|324> H  -0.423242742   0.382240100   0.724925770
|325> H   0.547477953   0.618699262  -0.472452837
|326> *
|327>
|328>
|329> $new_job
|330>
|331> # 140h2o.sphere.gfn2.md.500k.prod1.3h2o.dset.1h2o.dset-orca.engrad-mp2.def2tzvp-14000.to.14026
|332> ! MP2 def2-TZVP EnGrad TightSCF FrozenCore
|333>
|334> %pal
|335>     nprocs 12
|336> end
|337>
|338> %maxcore 8000
|339>
|340> %scf
|341>     ConvForced true
|342> end
|343>
|344> *xyz 0 1
|345> O   0.043166336   0.024275216  -0.038902978
|346> H  -0.278882194   0.477841690   0.699675314
|347> H  -0.406364979  -0.863200390  -0.082107141
|348> *
|349>
|350>
|351> $new_job
|352>
|353> # 140h2o.sphere.gfn2.md.500k.prod1.3h2o.dset.1h2o.dset-orca.engrad-mp2.def2tzvp-14000.to.14026
|354> ! MP2 def2-TZVP EnGrad TightSCF FrozenCore
|355>
|356> %pal
|357>     nprocs 12
|358> end
|359>
|360> %maxcore 8000
|361>
|362> %scf
|363>     ConvForced true
|364> end
|365>
|366> *xyz 0 1
|367> O  -0.010204604   0.021746599   0.066617774
|368> H  -0.436285957  -0.724594281  -0.519692548
|369> H   0.598279688   0.379376299  -0.537836185
|370> *
|371>
|372>
|373> $new_job
|374>
|375> # 140h2o.sphere.gfn2.md.500k.prod1.3h2o.dset.1h2o.dset-orca.engrad-mp2.def2tzvp-14000.to.14026
|376> ! MP2 def2-TZVP EnGrad TightSCF FrozenCore
|377>
|378> %pal
|379>     nprocs 12
|380> end
|381>
|382> %maxcore 8000
|383>
|384> %scf
|385>     ConvForced true
|386> end
|387>
|388> *xyz 0 1
|389> O  -0.031178662  -0.052324927  -0.024494877
|390> H   0.731703468  -0.117745365   0.517607508
|391> H  -0.236755510   0.948381250  -0.128761784
|392> *
|393>
|394>
|395> $new_job
|396>
|397> # 140h2o.sphere.gfn2.md.500k.prod1.3h2o.dset.1h2o.dset-orca.engrad-mp2.def2tzvp-14000.to.14026
|398> ! MP2 def2-TZVP EnGrad TightSCF FrozenCore
|399>
|400> %pal
|401>     nprocs 12
|402> end
|403>
|404> %maxcore 8000
|405>
|406> %scf
|407>     ConvForced true
|408> end
|409>
|410> *xyz 0 1
|411> O   0.037399541  -0.032687170  -0.038109334
|412> H  -0.679300341   0.497298961  -0.323448461
|413> H   0.085598585   0.021595921   0.928417885
|414> *
|415>
|416>
|417> $new_job
|418>
|419> # 140h2o.sphere.gfn2.md.500k.prod1.3h2o.dset.1h2o.dset-orca.engrad-mp2.def2tzvp-14000.to.14026
|420> ! MP2 def2-TZVP EnGrad TightSCF FrozenCore
|421>
|422> %pal
|423>     nprocs 12
|424> end
|425>
|426> %maxcore 8000
|427>
|428> %scf
|429>     ConvForced true
|430> end
|431>
|432> *xyz 0 1
|433> O   0.057693810   0.025464521   0.012516661
|434> H  -0.730527318   0.501644165   0.099565990
|435> H  -0.185337307  -0.905882578  -0.298262638
|436> *
|437>
|438>
|439> $new_job
|440>
|441> # 140h2o.sphere.gfn2.md.500k.prod1.3h2o.dset.1h2o.dset-orca.engrad-mp2.def2tzvp-14000.to.14026
|442> ! MP2 def2-TZVP EnGrad TightSCF FrozenCore
|443>
|444> %pal
|445>     nprocs 12
|446> end
|447>
|448> %maxcore 8000
|449>
|450> %scf
|451>     ConvForced true
|452> end
|453>
|454> *xyz 0 1
|455> O   0.060355133  -0.041792484   0.020864200
|456> H  -0.188741378   0.462471594  -0.863683347
|457> H  -0.769370601   0.200966251   0.532473071
|458> *
|459>
|460>
|461> $new_job
|462>
|463> # 140h2o.sphere.gfn2.md.500k.prod1.3h2o.dset.1h2o.dset-orca.engrad-mp2.def2tzvp-14000.to.14026
|464> ! MP2 def2-TZVP EnGrad TightSCF FrozenCore
|465>
|466> %pal
|467>     nprocs 12
|468> end
|469>
|470> %maxcore 8000
|471>
|472> %scf
|473>     ConvForced true
|474> end
|475>
|476> *xyz 0 1
|477> O  -0.014260251  -0.044001483  -0.040231339
|478> H  -0.627492447   0.537564129   0.447036115
|479> H   0.853867850   0.160940646   0.191619229
|480> *
|481>
|482>
|483> $new_job
|484>
|485> # 140h2o.sphere.gfn2.md.500k.prod1.3h2o.dset.1h2o.dset-orca.engrad-mp2.def2tzvp-14000.to.14026
|486> ! MP2 def2-TZVP EnGrad TightSCF FrozenCore
|487>
|488> %pal
|489>     nprocs 12
|490> end
|491>
|492> %maxcore 8000
|493>
|494> %scf
|495>     ConvForced true
|496> end
|497>
|498> *xyz 0 1
|499> O   0.015766259  -0.066726562  -0.005108327
|500> H  -0.777802780   0.394278717  -0.277679612
|501> H   0.527520151   0.664976980   0.358772120
|502> *
|503>
|504>
|505> $new_job
|506>
|507> # 140h2o.sphere.gfn2.md.500k.prod1.3h2o.dset.1h2o.dset-orca.engrad-mp2.def2tzvp-14000.to.14026
|508> ! MP2 def2-TZVP EnGrad TightSCF FrozenCore
|509>
|510> %pal
|511>     nprocs 12
|512> end
|513>
|514> %maxcore 8000
|515>
|516> %scf
|517>     ConvForced true
|518> end
|519>
|520> *xyz 0 1
|521> O   0.035526089  -0.031458506  -0.050922759
|522> H   0.207408195   0.867796198   0.485257855
|523> H  -0.771369696  -0.368405840   0.323119210
|524> *
|525>
|526>
|527> $new_job
|528>
|529> # 140h2o.sphere.gfn2.md.500k.prod1.3h2o.dset.1h2o.dset-orca.engrad-mp2.def2tzvp-14000.to.14026
|530> ! MP2 def2-TZVP EnGrad TightSCF FrozenCore
|531>
|532> %pal
|533>     nprocs 12
|534> end
|535>
|536> %maxcore 8000
|537>
|538> %scf
|539>     ConvForced true
|540> end
|541>
|542> *xyz 0 1
|543> O   0.025817398  -0.003488213   0.054866827
|544> H   0.078748129  -0.677495836  -0.625731482
|545> H  -0.488588308   0.732869729  -0.245255988
|546> *
|547>
|548>
|549> $new_job
|550>
|551> # 140h2o.sphere.gfn2.md.500k.prod1.3h2o.dset.1h2o.dset-orca.engrad-mp2.def2tzvp-14000.to.14026
|552> ! MP2 def2-TZVP EnGrad TightSCF FrozenCore
|553>
|554> %pal
|555>     nprocs 12
|556> end
|557>
|558> %maxcore 8000
|559>
|560> %scf
|561>     ConvForced true
|562> end
|563>
|564> *xyz 0 1
|565> O  -0.048618165   0.026244810   0.035019691
|566> H   0.111996399   0.090166594  -0.921482351
|567> H   0.659796228  -0.506791752   0.365559691
|568> *
|569>
|570>
|571> $new_job
|572>
|573> # 140h2o.sphere.gfn2.md.500k.prod1.3h2o.dset.1h2o.dset-orca.engrad-mp2.def2tzvp-14000.to.14026
|574> ! MP2 def2-TZVP EnGrad TightSCF FrozenCore
|575>
|576> %pal
|577>     nprocs 12
|578> end
|579>
|580> %maxcore 8000
|581>
|582> %scf
|583>     ConvForced true
|584> end
|585>
|586> *xyz 0 1
|587> O  -0.028873073   0.026160746  -0.042467791
|588> H   0.520043142  -0.739889340  -0.118147041
|589> H  -0.061695434   0.324598652   0.792305106
|590> *
|591>
|592>                          ****END OF INPUT****
 Total Charge           Charge          ....    0
 Multiplicity           Mult            ....    1
 Number of Electrons    NEL             ....   10
MP2 TOTAL ENERGY:      -76.307029552 Eh
FINAL SINGLE POINT ENERGY       -76.307029551996
MP2 TOTAL ENERGY:      -76.312003488 Eh
FINAL SINGLE POINT ENERGY       -76.312003487651
MP2 TOTAL ENERGY:      -76.311110209 Eh
FINAL SINGLE POINT ENERGY       -76.311110208753
MP2 TOTAL ENERGY:      -76.306672521 Eh
FINAL SINGLE POINT ENERGY       -76.306672520801
MP2 TOTAL ENERGY:      -76.311680898 Eh
FINAL SINGLE POINT ENERGY       -76.311680897730
MP2 TOTAL ENERGY:      -76.309945915 Eh
FINAL SINGLE POINT ENERGY       -76.309945914823
FINAL SINGLE POINT ENERGY       -76.307429430921
FINAL SINGLE POINT ENERGY       -76.300515997314
FINAL SINGLE POINT ENERGY       -76.312911836091
FINAL SINGLE POINT ENERGY       -76.310382023360
FINAL SINGLE POINT ENERGY       -76.308689969686
FINAL SINGLE POINT ENERGY       -76.312077100353
FINAL SINGLE POINT ENERGY       -76.309218662428
FINAL SINGLE POINT ENERGY       -76.305197313564
MP2 TOTAL ENERGY:      -76.310697533 Eh
FINAL SINGLE POINT ENERGY       -76.310697532702
MP2 TOTAL ENERGY:      -76.312606266 Eh
FINAL SINGLE POINT ENERGY       -76.312606266295
MP2 TOTAL ENERGY:      -76.305324845 Eh
FINAL SINGLE POINT ENERGY       -76.305324844888
MP2 TOTAL ENERGY:      -76.312104019 Eh
FINAL SINGLE POINT ENERGY       -76.312104019140
MP2 TOTAL ENERGY:      -76.312701895 Eh
FINAL SINGLE POINT ENERGY       -76.312701894589

CARTESIAN COORDINATES (ANGSTROEM)
---------------------------------
  O     -0.028873    0.026161   -0.042468
  H      0.520043   -0.739889   -0.118147
  H     -0.061695    0.324599    0.792305

 Multiplicity           Mult            ....    1
 Number of Electrons    NEL             ....   10
 Basis Dimension        Dim             ....   43

ORBITAL ENERGIES
----------------

  NO   OCC          E(Eh)            E(eV)
   0   2.0000     -20.548503      -559.1532
   1   2.0000      -1.367460       -37.2105
   2   2.0000      -0.752328       -20.4719
   3   2.0000      -0.574687       -15.6380
   4   2.0000      -0.509657       -13.8685
   5   0.0000       0.132649         3.6096
   6   0.0000       0.199052         5.4165
   7   0.0000       0.544424        14.8145
   8   0.0000       0.560155        15.2426
   9   0.0000       0.596823        16.2404

MULLIKEN ATOMIC CHARGES
-----------------------
   0 O :   -0.667518
   1 H :    0.343500
   2 H :    0.324018
Sum of atomic charges:   -0.0000000

LOEWDIN ATOMIC CHARGES
----------------------
   0 O :   -0.261684
   1 H :    0.155020
   2 H :    0.106664

  Mayer bond orders larger than 0.100000
B(  0-O ,  1-H ) :   0.8544 B(  0-O ,  2-H ) :   0.8763

MP2 TOTAL ENERGY:      -76.305838821 Eh
FINAL SINGLE POINT ENERGY       -76.305838821078

DIPOLE MOMENT
-------------
                                X             Y             Z
Electronic contribution:     -0.04714       0.04754      -0.05345
Nuclear contribution   :      0.42958      -0.38922       0.63184
                        -----------------------------------------
Total Dipole Moment    :      0.38244      -0.34168       0.57839
                        -----------------------------------------
Magnitude (a.u.)       :      0.77300
Magnitude (Debye)      :      1.96482

Rotational constants in cm-1:    35.771129    14.492655    10.313960
Rotational constants in MHz : 1072391.477124 434478.866537 309204.727152

                             ****ORCA TERMINATED NORMALLY****
TOTAL RUN TIME: 0 days 0 hours 2 minutes 46 seconds 153 msec
