                         Program Version 4.2.0 -  RELEASE  -
|  1> # 16h2o.yoo.etal.boat.b.3h2o.dset-orca.engrad-mp2.def2tzvp-500.to.559
|  2> ! MP2 def2-TZVP EnGrad TightSCF FrozenCore
|  3>
|  4> %pal
|  5>     nprocs 6
|  6> end
|  7>
|  8> %maxcore 8000
|  9>
| 10> %scf
| 11>     ConvForced true
| 12> end
| 13>
| 14> *xyz 0 1
| 15> O   2.838146000  -2.263536120  -0.138730120
| 16> H   1.899811180  -2.286791770  -0.402796420
| 17> H   2.813410950  -2.051539230   0.809438010
| 18> O  -2.856893130   2.235015450  -0.006053840
| 19> H  -1.950109880   2.266134990   0.348554180
| 20> H  -3.334753900   1.599732010   0.557436650
| 21> O   0.090174750  -1.846110530  -0.580225690
| 22> H  -0.702804930  -2.412943650  -0.634769220
| 23> H   0.031662010  -1.434201840   0.310610750
| 24> *
| 25>
| 26>
| 27> $new_job
| 28>
| 29> # 16h2o.yoo.etal.boat.b.3h2o.dset-orca.engrad-mp2.def2tzvp-500.to.559
| 30> ! MP2 def2-TZVP EnGrad TightSCF FrozenCore
| 31>
| 32> %pal
| 33>     nprocs 6
| 34> end
| 35>
| 36> %maxcore 8000
| 37>
| 38> %scf
| 39>     ConvForced true
| 40> end
| 41>
| 42> *xyz 0 1
| 43> O   2.838146000  -2.263536120  -0.138730120
| 44> H   1.899811180  -2.286791770  -0.402796420
| 45> H   2.813410950  -2.051539230   0.809438010
| 46> O  -4.238936560   0.123091700   1.259056120
| 47> H  -4.967739430   0.226879490   1.877485830
| 48> H  -3.616055280  -0.530301490   1.674653570
| 49> O   4.267375430  -0.273424570  -1.171620400
| 50> H   3.752967870  -1.067260270  -0.868274570
| 51> H   5.021742090  -0.616076610  -1.659299840
| 52> *
| 53>
| 54>
| 55> $new_job
| 56>
| 57> # 16h2o.yoo.etal.boat.b.3h2o.dset-orca.engrad-mp2.def2tzvp-500.to.559
| 58> ! MP2 def2-TZVP EnGrad TightSCF FrozenCore
| 59>
| 60> %pal
| 61>     nprocs 6
| 62> end
| 63>
| 64> %maxcore 8000
| 65>
| 66> %scf
| 67>     ConvForced true
| 68> end
| 69>
| 70> *xyz 0 1
| 71> O   2.838146000  -2.263536120  -0.138730120
| 72> H   1.899811180  -2.286791770  -0.402796420
| 73> H   2.813410950  -2.051539230   0.809438010
| 74> O  -4.238936560   0.123091700   1.259056120
| 75> H  -4.967739430   0.226879490   1.877485830
| 76> H  -3.616055280  -0.530301490   1.674653570
| 77> O   0.090174750  -1.846110530  -0.580225690
| 78> H  -0.702804930  -2.412943650  -0.634769220
| 79> H   0.031662010  -1.434201840   0.310610750
| 80> *
| 81>
| 82>
| 83> $new_job
| 84>
| 85> # 16h2o.yoo.etal.boat.b.3h2o.dset-orca.engrad-mp2.def2tzvp-500.to.559
| 86> ! MP2 def2-TZVP EnGrad TightSCF FrozenCore
| 87>
| 88> %pal
| 89>     nprocs 6
| 90> end
| 91>
| 92> %maxcore 8000
| 93>
| 94> %scf
| 95>     ConvForced true
| 96> end
| 97>
| 98> *xyz 0 1
| 99> O   2.838146000  -2.263536120  -0.138730120
|100> H   1.899811180  -2.286791770  -0.402796420
|101> H   2.813410950  -2.051539230   0.809438010
|102> O   4.267375430  -0.273424570  -1.171620400
|103> H   3.752967870  -1.067260270  -0.868274570
|104> H   5.021742090  -0.616076610  -1.659299840
|105> O   0.090174750  -1.846110530  -0.580225690
|106> H  -0.702804930  -2.412943650  -0.634769220
|107> H   0.031662010  -1.434201840   0.310610750
|108> *
|109>
|110>
|111> $new_job
|112>
|113> # 16h2o.yoo.etal.boat.b.3h2o.dset-orca.engrad-mp2.def2tzvp-500.to.559
|114> ! MP2 def2-TZVP EnGrad TightSCF FrozenCore
|115>
|116> %pal
|117>     nprocs 6
|118> end
|119>
|120> %maxcore 8000
|121>
|122> %scf
|123>     ConvForced true
|124> end
|125>
|126> *xyz 0 1
|127> O  -2.414228350  -3.052942980  -0.415541590
|128> H  -2.729000630  -3.919664690  -0.687548060
|129> H  -3.034566120  -2.392689920  -0.822159190
|130> O   2.515723360   1.778954740  -2.000857960
|131> H   1.652429200   1.352191620  -2.149488420
|132> H   3.139528900   1.042384330  -1.868032090
|133> O   2.394165620   3.094502760   0.295580090
|134> H   2.635243310   4.021878780   0.214380780
|135> H   2.470452610   2.705308080  -0.617546500
|136> *
|137>
|138>
|139> $new_job
|140>
|141> # 16h2o.yoo.etal.boat.b.3h2o.dset-orca.engrad-mp2.def2tzvp-500.to.559
|142> ! MP2 def2-TZVP EnGrad TightSCF FrozenCore
|143>
|144> %pal
|145>     nprocs 6
|146> end
|147>
|148> %maxcore 8000
|149>
|150> %scf
|151>     ConvForced true
|152> end
|153>
|154> *xyz 0 1
|155> O  -2.414228350  -3.052942980  -0.415541590
|156> H  -2.729000630  -3.919664690  -0.687548060
|157> H  -3.034566120  -2.392689920  -0.822159190
|158> O   2.515723360   1.778954740  -2.000857960
|159> H   1.652429200   1.352191620  -2.149488420
|160> H   3.139528900   1.042384330  -1.868032090
|161> O  -0.118796780   1.863412090   0.558787180
|162> H  -0.042407130   1.457940650  -0.333750430
|163> H   0.657441220   2.450573430   0.618030400
|164> *
|165>
|166>
|167> $new_job
|168>
|169> # 16h2o.yoo.etal.boat.b.3h2o.dset-orca.engrad-mp2.def2tzvp-500.to.559
|170> ! MP2 def2-TZVP EnGrad TightSCF FrozenCore
|171>
|172> %pal
|173>     nprocs 6
|174> end
|175>
|176> %maxcore 8000
|177>
|178> %scf
|179>     ConvForced true
|180> end
|181>
|182> *xyz 0 1
|183> O  -2.414228350  -3.052942980  -0.415541590
|184> H  -2.729000630  -3.919664690  -0.687548060
|185> H  -3.034566120  -2.392689920  -0.822159190
|186> O   2.515723360   1.778954740  -2.000857960
|187> H   1.652429200   1.352191620  -2.149488420
|188> H   3.139528900   1.042384330  -1.868032090
|189> O  -2.856893130   2.235015450  -0.006053840
|190> H  -1.950109880   2.266134990   0.348554180
|191> H  -3.334753900   1.599732010   0.557436650
|192> *
|193>
|194>
|195> $new_job
|196>
|197> # 16h2o.yoo.etal.boat.b.3h2o.dset-orca.engrad-mp2.def2tzvp-500.to.559
|198> ! MP2 def2-TZVP EnGrad TightSCF FrozenCore
|199>
|200> %pal
|201>     nprocs 6
|202> end
|203>
|204> %maxcore 8000
|205>
|206> %scf
|207>     ConvForced true
|208> end
|209>
|210> *xyz 0 1
|211> O  -2.414228350  -3.052942980  -0.415541590
|212> H  -2.729000630  -3.919664690  -0.687548060
|213> H  -3.034566120  -2.392689920  -0.822159190
|214> O   2.515723360   1.778954740  -2.000857960
|215> H   1.652429200   1.352191620  -2.149488420
|216> H   3.139528900   1.042384330  -1.868032090
|217> O  -4.238936560   0.123091700   1.259056120
|218> H  -4.967739430   0.226879490   1.877485830
|219> H  -3.616055280  -0.530301490   1.674653570
|220> *
|221>
|222>
|223> $new_job
|224>
|225> # 16h2o.yoo.etal.boat.b.3h2o.dset-orca.engrad-mp2.def2tzvp-500.to.559
|226> ! MP2 def2-TZVP EnGrad TightSCF FrozenCore
|227>
|228> %pal
|229>     nprocs 6
|230> end
|231>
|232> %maxcore 8000
|233>
|234> %scf
|235>     ConvForced true
|236> end
|237>
|238> *xyz 0 1
|239> O  -2.414228350  -3.052942980  -0.415541590
|240> H  -2.729000630  -3.919664690  -0.687548060
|241> H  -3.034566120  -2.392689920  -0.822159190
|242> O   2.515723360   1.778954740  -2.000857960
|243> H   1.652429200   1.352191620  -2.149488420
|244> H   3.139528900   1.042384330  -1.868032090
|245> O   4.267375430  -0.273424570  -1.171620400
|246> H   3.752967870  -1.067260270  -0.868274570
|247> H   5.021742090  -0.616076610  -1.659299840
|248> *
|249>
|250>
|251> $new_job
|252>
|253> # 16h2o.yoo.etal.boat.b.3h2o.dset-orca.engrad-mp2.def2tzvp-500.to.559
|254> ! MP2 def2-TZVP EnGrad TightSCF FrozenCore
|255>
|256> %pal
|257>     nprocs 6
|258> end
|259>
|260> %maxcore 8000
|261>
|262> %scf
|263>     ConvForced true
|264> end
|265>
|266> *xyz 0 1
|267> O  -2.414228350  -3.052942980  -0.415541590
|268> H  -2.729000630  -3.919664690  -0.687548060
|269> H  -3.034566120  -2.392689920  -0.822159190
|270> O   2.515723360   1.778954740  -2.000857960
|271> H   1.652429200   1.352191620  -2.149488420
|272> H   3.139528900   1.042384330  -1.868032090
|273> O   0.090174750  -1.846110530  -0.580225690
|274> H  -0.702804930  -2.412943650  -0.634769220
|275> H   0.031662010  -1.434201840   0.310610750
|276> *
|277>
|278>
|279> $new_job
|280>
|281> # 16h2o.yoo.etal.boat.b.3h2o.dset-orca.engrad-mp2.def2tzvp-500.to.559
|282> ! MP2 def2-TZVP EnGrad TightSCF FrozenCore
|283>
|284> %pal
|285>     nprocs 6
|286> end
|287>
|288> %maxcore 8000
|289>
|290> %scf
|291>     ConvForced true
|292> end
|293>
|294> *xyz 0 1
|295> O  -2.414228350  -3.052942980  -0.415541590
|296> H  -2.729000630  -3.919664690  -0.687548060
|297> H  -3.034566120  -2.392689920  -0.822159190
|298> O   2.394165620   3.094502760   0.295580090
|299> H   2.635243310   4.021878780   0.214380780
|300> H   2.470452610   2.705308080  -0.617546500
|301> O  -0.118796780   1.863412090   0.558787180
|302> H  -0.042407130   1.457940650  -0.333750430
|303> H   0.657441220   2.450573430   0.618030400
|304> *
|305>
|306>
|307> $new_job
|308>
|309> # 16h2o.yoo.etal.boat.b.3h2o.dset-orca.engrad-mp2.def2tzvp-500.to.559
|310> ! MP2 def2-TZVP EnGrad TightSCF FrozenCore
|311>
|312> %pal
|313>     nprocs 6
|314> end
|315>
|316> %maxcore 8000
|317>
|318> %scf
|319>     ConvForced true
|320> end
|321>
|322> *xyz 0 1
|323> O  -2.414228350  -3.052942980  -0.415541590
|324> H  -2.729000630  -3.919664690  -0.687548060
|325> H  -3.034566120  -2.392689920  -0.822159190
|326> O   2.394165620   3.094502760   0.295580090
|327> H   2.635243310   4.021878780   0.214380780
|328> H   2.470452610   2.705308080  -0.617546500
|329> O  -2.856893130   2.235015450  -0.006053840
|330> H  -1.950109880   2.266134990   0.348554180
|331> H  -3.334753900   1.599732010   0.557436650
|332> *
|333>
|334>
|335> $new_job
|336>
|337> # 16h2o.yoo.etal.boat.b.3h2o.dset-orca.engrad-mp2.def2tzvp-500.to.559
|338> ! MP2 def2-TZVP EnGrad TightSCF FrozenCore
|339>
|340> %pal
|341>     nprocs 6
|342> end
|343>
|344> %maxcore 8000
|345>
|346> %scf
|347>     ConvForced true
|348> end
|349>
|350> *xyz 0 1
|351> O  -2.414228350  -3.052942980  -0.415541590
|352> H  -2.729000630  -3.919664690  -0.687548060
|353> H  -3.034566120  -2.392689920  -0.822159190
|354> O   2.394165620   3.094502760   0.295580090
|355> H   2.635243310   4.021878780   0.214380780
|356> H   2.470452610   2.705308080  -0.617546500
|357> O  -4.238936560   0.123091700   1.259056120
|358> H  -4.967739430   0.226879490   1.877485830
|359> H  -3.616055280  -0.530301490   1.674653570
|360> *
|361>
|362>
|363> $new_job
|364>
|365> # 16h2o.yoo.etal.boat.b.3h2o.dset-orca.engrad-mp2.def2tzvp-500.to.559
|366> ! MP2 def2-TZVP EnGrad TightSCF FrozenCore
|367>
|368> %pal
|369>     nprocs 6
|370> end
|371>
|372> %maxcore 8000
|373>
|374> %scf
|375>     ConvForced true
|376> end
|377>
|378> *xyz 0 1
|379> O  -2.414228350  -3.052942980  -0.415541590
|380> H  -2.729000630  -3.919664690  -0.687548060
|381> H  -3.034566120  -2.392689920  -0.822159190
|382> O   2.394165620   3.094502760   0.295580090
|383> H   2.635243310   4.021878780   0.214380780
|384> H   2.470452610   2.705308080  -0.617546500
|385> O   4.267375430  -0.273424570  -1.171620400
|386> H   3.752967870  -1.067260270  -0.868274570
|387> H   5.021742090  -0.616076610  -1.659299840
|388> *
|389>
|390>
|391> $new_job
|392>
|393> # 16h2o.yoo.etal.boat.b.3h2o.dset-orca.engrad-mp2.def2tzvp-500.to.559
|394> ! MP2 def2-TZVP EnGrad TightSCF FrozenCore
|395>
|396> %pal
|397>     nprocs 6
|398> end
|399>
|400> %maxcore 8000
|1279> H  -1.950109880   2.266134990   0.348554180
|1280> H  -3.334753900   1.599732010   0.557436650
|1281> O   4.267375430  -0.273424570  -1.171620400
|1282> H   3.752967870  -1.067260270  -0.868274570
|1283> H   5.021742090  -0.616076610  -1.659299840
|1284> *
|1285>
|1286>
|1287> $new_job
|1288>
|1289> # 16h2o.yoo.etal.boat.b.3h2o.dset-orca.engrad-mp2.def2tzvp-500.to.559
|1290> ! MP2 def2-TZVP EnGrad TightSCF FrozenCore
|1291>
|1292> %pal
|1293>     nprocs 6
|1294> end
|1295>
|1296> %maxcore 8000
|1297>
|1298> %scf
|1299>     ConvForced true
|1300> end
|1301>
|1302> *xyz 0 1
|1303> O   2.394165620   3.094502760   0.295580090
|1304> H   2.635243310   4.021878780   0.214380780
|1305> H   2.470452610   2.705308080  -0.617546500
|1306> O  -2.856893130   2.235015450  -0.006053840
|1307> H  -1.950109880   2.266134990   0.348554180
|1308> H  -3.334753900   1.599732010   0.557436650
|1309> O   0.090174750  -1.846110530  -0.580225690
|1310> H  -0.702804930  -2.412943650  -0.634769220
|1311> H   0.031662010  -1.434201840   0.310610750
|1312> *
|1313>
|1314>
|1315> $new_job
|1316>
|1317> # 16h2o.yoo.etal.boat.b.3h2o.dset-orca.engrad-mp2.def2tzvp-500.to.559
|1318> ! MP2 def2-TZVP EnGrad TightSCF FrozenCore
|1319>
|1320> %pal
|1321>     nprocs 6
|1322> end
|1323>
|1324> %maxcore 8000
|1325>
|1326> %scf
|1327>     ConvForced true
|1328> end
|1329>
|1330> *xyz 0 1
|1331> O   2.394165620   3.094502760   0.295580090
|1332> H   2.635243310   4.021878780   0.214380780
|1333> H   2.470452610   2.705308080  -0.617546500
|1334> O  -4.238936560   0.123091700   1.259056120
|1335> H  -4.967739430   0.226879490   1.877485830
|1336> H  -3.616055280  -0.530301490   1.674653570
|1337> O   4.267375430  -0.273424570  -1.171620400
|1338> H   3.752967870  -1.067260270  -0.868274570
|1339> H   5.021742090  -0.616076610  -1.659299840
|1340> *
|1341>
|1342>
|1343> $new_job
|1344>
|1345> # 16h2o.yoo.etal.boat.b.3h2o.dset-orca.engrad-mp2.def2tzvp-500.to.559
|1346> ! MP2 def2-TZVP EnGrad TightSCF FrozenCore
|1347>
|1348> %pal
|1349>     nprocs 6
|1350> end
|1351>
|1352> %maxcore 8000
|1353>
|1354> %scf
|1355>     ConvForced true
|1356> end
|1357>
|1358> *xyz 0 1
|1359> O   2.394165620   3.094502760   0.295580090
|1360> H   2.635243310   4.021878780   0.214380780
|1361> H   2.470452610   2.705308080  -0.617546500
|1362> O  -4.238936560   0.123091700   1.259056120
|1363> H  -4.967739430   0.226879490   1.877485830
|1364> H  -3.616055280  -0.530301490   1.674653570
|1365> O   0.090174750  -1.846110530  -0.580225690
|1366> H  -0.702804930  -2.412943650  -0.634769220
|1367> H   0.031662010  -1.434201840   0.310610750
|1368> *
|1369>
|1370>
|1371> $new_job
|1372>
|1373> # 16h2o.yoo.etal.boat.b.3h2o.dset-orca.engrad-mp2.def2tzvp-500.to.559
|1374> ! MP2 def2-TZVP EnGrad TightSCF FrozenCore
|1375>
|1376> %pal
|1377>     nprocs 6
|1378> end
|1379>
|1380> %maxcore 8000
|1381>
|1382> %scf
|1383>     ConvForced true
|1384> end
|1385>
|1386> *xyz 0 1
|1387> O   2.394165620   3.094502760   0.295580090
|1388> H   2.635243310   4.021878780   0.214380780
|1389> H   2.470452610   2.705308080  -0.617546500
|1390> O   4.267375430  -0.273424570  -1.171620400
|1391> H   3.752967870  -1.067260270  -0.868274570
|1392> H   5.021742090  -0.616076610  -1.659299840
|1393> O   0.090174750  -1.846110530  -0.580225690
|1394> H  -0.702804930  -2.412943650  -0.634769220
|1395> H   0.031662010  -1.434201840   0.310610750
|1396> *
|1397>
|1398>
|1399> $new_job
|1400>
|1401> # 16h2o.yoo.etal.boat.b.3h2o.dset-orca.engrad-mp2.def2tzvp-500.to.559
|1402> ! MP2 def2-TZVP EnGrad TightSCF FrozenCore
|1403>
|1404> %pal
|1405>     nprocs 6
|1406> end
|1407>
|1408> %maxcore 8000
|1409>
|1410> %scf
|1411>     ConvForced true
|1412> end
|1413>
|1414> *xyz 0 1
|1415> O  -0.118796780   1.863412090   0.558787180
|1416> H  -0.042407130   1.457940650  -0.333750430
|1417> H   0.657441220   2.450573430   0.618030400
|1418> O  -2.856893130   2.235015450  -0.006053840
|1419> H  -1.950109880   2.266134990   0.348554180
|1420> H  -3.334753900   1.599732010   0.557436650
|1421> O  -4.238936560   0.123091700   1.259056120
|1422> H  -4.967739430   0.226879490   1.877485830
|1423> H  -3.616055280  -0.530301490   1.674653570
|1424> *
|1425>
|1426>
|1427> $new_job
|1428>
|1429> # 16h2o.yoo.etal.boat.b.3h2o.dset-orca.engrad-mp2.def2tzvp-500.to.559
|1430> ! MP2 def2-TZVP EnGrad TightSCF FrozenCore
|1431>
|1432> %pal
|1433>     nprocs 6
|1434> end
|1435>
|1436> %maxcore 8000
|1437>
|1438> %scf
|1439>     ConvForced true
|1440> end
|1441>
|1442> *xyz 0 1
|1443> O  -0.118796780   1.863412090   0.558787180
|1444> H  -0.042407130   1.457940650  -0.333750430
|1445> H   0.657441220   2.450573430   0.618030400
|1446> O  -2.856893130   2.235015450  -0.006053840
|1447> H  -1.950109880   2.266134990   0.348554180
|1448> H  -3.334753900   1.599732010   0.557436650
|1449> O   4.267375430  -0.273424570  -1.171620400
|1450> H   3.752967870  -1.067260270  -0.868274570
|1451> H   5.021742090  -0.616076610  -1.659299840
|1452> *
|1453>
|1454>
|1455> $new_job
|1456>
|1457> # 16h2o.yoo.etal.boat.b.3h2o.dset-orca.engrad-mp2.def2tzvp-500.to.559
|1458> ! MP2 def2-TZVP EnGrad TightSCF FrozenCore
|1459>
|1460> %pal
|1461>     nprocs 6
|1462> end
|1463>
|1464> %maxcore 8000
|1465>
|1466> %scf
|1467>     ConvForced true
|1468> end
|1469>
|1470> *xyz 0 1
|1471> O  -0.118796780   1.863412090   0.558787180
|1472> H  -0.042407130   1.457940650  -0.333750430
|1473> H   0.657441220   2.450573430   0.618030400
|1474> O  -2.856893130   2.235015450  -0.006053840
|1475> H  -1.950109880   2.266134990   0.348554180
|1476> H  -3.334753900   1.599732010   0.557436650
|1477> O   0.090174750  -1.846110530  -0.580225690
|1478> H  -0.702804930  -2.412943650  -0.634769220
|1479> H   0.031662010  -1.434201840   0.310610750
|1480> *
|1481>
|1482>
|1483> $new_job
|1484>
|1485> # 16h2o.yoo.etal.boat.b.3h2o.dset-orca.engrad-mp2.def2tzvp-500.to.559
|1486> ! MP2 def2-TZVP EnGrad TightSCF FrozenCore
|1487>
|1488> %pal
|1489>     nprocs 6
|1490> end
|1491>
|1492> %maxcore 8000
|1493>
|1494> %scf
|1495>     ConvForced true
|1496> end
|1497>
|1498> *xyz 0 1
|1499> O  -0.118796780   1.863412090   0.558787180
|1500> H  -0.042407130   1.457940650  -0.333750430
|1501> H   0.657441220   2.450573430   0.618030400
|1502> O  -4.238936560   0.123091700   1.259056120
|1503> H  -4.967739430   0.226879490   1.877485830
|1504> H  -3.616055280  -0.530301490   1.674653570
|1505> O   4.267375430  -0.273424570  -1.171620400
|1506> H   3.752967870  -1.067260270  -0.868274570
|1507> H   5.021742090  -0.616076610  -1.659299840
|1508> *
|1509>
|1510>
|1511> $new_job
|1512>
|1513> # 16h2o.yoo.etal.boat.b.3h2o.dset-orca.engrad-mp2.def2tzvp-500.to.559
|1514> ! MP2 def2-TZVP EnGrad TightSCF FrozenCore
|1515>
|1516> %pal
|1517>     nprocs 6
|1518> end
|1519>
|1520> %maxcore 8000
|1521>
|1522> %scf
|1523>     ConvForced true
|1524> end
|1525>
|1526> *xyz 0 1
|1527> O  -0.118796780   1.863412090   0.558787180
|1528> H  -0.042407130   1.457940650  -0.333750430
|1529> H   0.657441220   2.450573430   0.618030400
|1530> O  -4.238936560   0.123091700   1.259056120
|1531> H  -4.967739430   0.226879490   1.877485830
|1532> H  -3.616055280  -0.530301490   1.674653570
|1533> O   0.090174750  -1.846110530  -0.580225690
|1534> H  -0.702804930  -2.412943650  -0.634769220
|1535> H   0.031662010  -1.434201840   0.310610750
|1536> *
|1537>
|1538>
|1539> $new_job
|1540>
|1541> # 16h2o.yoo.etal.boat.b.3h2o.dset-orca.engrad-mp2.def2tzvp-500.to.559
|1542> ! MP2 def2-TZVP EnGrad TightSCF FrozenCore
|1543>
|1544> %pal
|1545>     nprocs 6
|1546> end
|1547>
|1548> %maxcore 8000
|1549>
|1550> %scf
|1551>     ConvForced true
|1552> end
|1553>
|1554> *xyz 0 1
|1555> O  -0.118796780   1.863412090   0.558787180
|1556> H  -0.042407130   1.457940650  -0.333750430
|1557> H   0.657441220   2.450573430   0.618030400
|1558> O   4.267375430  -0.273424570  -1.171620400
|1559> H   3.752967870  -1.067260270  -0.868274570
|1560> H   5.021742090  -0.616076610  -1.659299840
|1561> O   0.090174750  -1.846110530  -0.580225690
|1562> H  -0.702804930  -2.412943650  -0.634769220
|1563> H   0.031662010  -1.434201840   0.310610750
|1564> *
|1565>
|1566>
|1567> $new_job
|1568>
|1569> # 16h2o.yoo.etal.boat.b.3h2o.dset-orca.engrad-mp2.def2tzvp-500.to.559
|1570> ! MP2 def2-TZVP EnGrad TightSCF FrozenCore
|1571>
|1572> %pal
|1573>     nprocs 6
|1574> end
|1575>
|1576> %maxcore 8000
|1577>
|1578> %scf
|1579>     ConvForced true
|1580> end
|1581>
|1582> *xyz 0 1
|1583> O  -2.856893130   2.235015450  -0.006053840
|1584> H  -1.950109880   2.266134990   0.348554180
|1585> H  -3.334753900   1.599732010   0.557436650
|1586> O  -4.238936560   0.123091700   1.259056120
|1587> H  -4.967739430   0.226879490   1.877485830
|1588> H  -3.616055280  -0.530301490   1.674653570
|1589> O   4.267375430  -0.273424570  -1.171620400
|1590> H   3.752967870  -1.067260270  -0.868274570
|1591> H   5.021742090  -0.616076610  -1.659299840
|1592> *
|1593>
|1594>
|1595> $new_job
|1596>
|1597> # 16h2o.yoo.etal.boat.b.3h2o.dset-orca.engrad-mp2.def2tzvp-500.to.559
|1598> ! MP2 def2-TZVP EnGrad TightSCF FrozenCore
|1599>
|1600> %pal
|1601>     nprocs 6
|1602> end
|1603>
|1604> %maxcore 8000
|1605>
|1606> %scf
|1607>     ConvForced true
|1608> end
|1609>
|1610> *xyz 0 1
|1611> O  -2.856893130   2.235015450  -0.006053840
|1612> H  -1.950109880   2.266134990   0.348554180
|1613> H  -3.334753900   1.599732010   0.557436650
|1614> O  -4.238936560   0.123091700   1.259056120
|1615> H  -4.967739430   0.226879490   1.877485830
|1616> H  -3.616055280  -0.530301490   1.674653570
|1617> O   0.090174750  -1.846110530  -0.580225690
|1618> H  -0.702804930  -2.412943650  -0.634769220
|1619> H   0.031662010  -1.434201840   0.310610750
|1620> *
|1621>
|1622>
|1623> $new_job
|1624>
|1625> # 16h2o.yoo.etal.boat.b.3h2o.dset-orca.engrad-mp2.def2tzvp-500.to.559
|1626> ! MP2 def2-TZVP EnGrad TightSCF FrozenCore
|1627>
|1628> %pal
|1629>     nprocs 6
|1630> end
|1631>
|1632> %maxcore 8000
|1633>
|1634> %scf
|1635>     ConvForced true
|1636> end
|1637>
|1638> *xyz 0 1
|1639> O  -2.856893130   2.235015450  -0.006053840
|1640> H  -1.950109880   2.266134990   0.348554180
|1641> H  -3.334753900   1.599732010   0.557436650
|1642> O   4.267375430  -0.273424570  -1.171620400
|1643> H   3.752967870  -1.067260270  -0.868274570
|1644> H   5.021742090  -0.616076610  -1.659299840
|1645> O   0.090174750  -1.846110530  -0.580225690
|1646> H  -0.702804930  -2.412943650  -0.634769220
|1647> H   0.031662010  -1.434201840   0.310610750
|1648> *
|1649>
|1650>
|1651> $new_job
|1652>
|1653> # 16h2o.yoo.etal.boat.b.3h2o.dset-orca.engrad-mp2.def2tzvp-500.to.559
|1654> ! MP2 def2-TZVP EnGrad TightSCF FrozenCore
|1655>
|1656> %pal
|1657>     nprocs 6
|1658> end
|1659>
|1660> %maxcore 8000
|1661>
|1662> %scf
|1663>     ConvForced true
|1664> end
|1665>
|1666> *xyz 0 1
|1667> O  -4.238936560   0.123091700   1.259056120
|1668> H  -4.967739430   0.226879490   1.877485830
|1669> H  -3.616055280  -0.530301490   1.674653570
|1670> O   4.267375430  -0.273424570  -1.171620400
|1671> H   3.752967870  -1.067260270  -0.868274570
|1672> H   5.021742090  -0.616076610  -1.659299840
|1673> O   0.090174750  -1.846110530  -0.580225690
|1674> H  -0.702804930  -2.412943650  -0.634769220
|1675> H   0.031662010  -1.434201840   0.310610750
|1676> *
|1677>
|1678>                          ****END OF INPUT****
 Total Charge           Charge          ....    0
 Multiplicity           Mult            ....    1
 Number of Electrons    NEL             ....   30
MP2 TOTAL ENERGY:     -228.942520928 Eh
FINAL SINGLE POINT ENERGY      -228.942520928115
MP2 TOTAL ENERGY:     -228.944351435 Eh
FINAL SINGLE POINT ENERGY      -228.944351434671
MP2 TOTAL ENERGY:     -228.942058105 Eh
FINAL SINGLE POINT ENERGY      -228.942058105393
MP2 TOTAL ENERGY:     -228.953074080 Eh
FINAL SINGLE POINT ENERGY      -228.953074080348
MP2 TOTAL ENERGY:     -228.944605280 Eh
FINAL SINGLE POINT ENERGY      -228.944605280065
MP2 TOTAL ENERGY:     -228.938296171 Eh
FINAL SINGLE POINT ENERGY      -228.938296171393
FINAL SINGLE POINT ENERGY      -228.938687840423
FINAL SINGLE POINT ENERGY      -228.940143529636
FINAL SINGLE POINT ENERGY      -228.944431683627
FINAL SINGLE POINT ENERGY      -228.948167407265
FINAL SINGLE POINT ENERGY      -228.951346460638
FINAL SINGLE POINT ENERGY      -228.947129464078
FINAL SINGLE POINT ENERGY      -228.949325524220
FINAL SINGLE POINT ENERGY      -228.937234733595
MP2 TOTAL ENERGY:     -228.939765130 Eh
FINAL SINGLE POINT ENERGY      -228.939765129664
MP2 TOTAL ENERGY:     -228.942849859 Eh
FINAL SINGLE POINT ENERGY      -228.942849859447
MP2 TOTAL ENERGY:     -228.943783056 Eh
FINAL SINGLE POINT ENERGY      -228.943783055566
MP2 TOTAL ENERGY:     -228.942838711 Eh
FINAL SINGLE POINT ENERGY      -228.942838711424
MP2 TOTAL ENERGY:     -228.937785206 Eh
FINAL SINGLE POINT ENERGY      -228.937785205981

CARTESIAN COORDINATES (ANGSTROEM)
---------------------------------
  O     -4.238937    0.123092    1.259056
  H     -4.967739    0.226879    1.877486
  H     -3.616055   -0.530301    1.674654
  O      4.267375   -0.273425   -1.171620
  H      3.752968   -1.067260   -0.868275
  H      5.021742   -0.616077   -1.659300
  O      0.090175   -1.846111   -0.580226
  H     -0.702805   -2.412944   -0.634769
  H      0.031662   -1.434202    0.310611

 Multiplicity           Mult            ....    1
 Number of Electrons    NEL             ....   30
 Basis Dimension        Dim             ....  129

ORBITAL ENERGIES
----------------

  NO   OCC          E(Eh)            E(eV)
   0   2.0000     -20.568973      -559.7102
   1   2.0000     -20.567514      -559.6705
   2   2.0000     -20.552638      -559.2657
   3   2.0000      -1.344902       -36.5966
   4   2.0000      -1.342115       -36.5208
   5   2.0000      -1.328866       -36.1603
   6   2.0000      -0.713221       -19.4077
   7   2.0000      -0.705535       -19.1986
   8   2.0000      -0.696831       -18.9617
   9   2.0000      -0.581262       -15.8169
  10   2.0000      -0.580356       -15.7923
  11   2.0000      -0.564794       -15.3688
  12   2.0000      -0.512184       -13.9372
  13   2.0000      -0.509784       -13.8719
  14   2.0000      -0.496156       -13.5011
  15   0.0000       0.096530         2.6267
  16   0.0000       0.129676         3.5287
  17   0.0000       0.144365         3.9284
  18   0.0000       0.189499         5.1565
  19   0.0000       0.195605         5.3227

MULLIKEN ATOMIC CHARGES
-----------------------
   0 O :   -0.676502
   1 H :    0.340591
   2 H :    0.335627
   3 O :   -0.683608
   4 H :    0.346931
   5 H :    0.335616
   6 O :   -0.674803
   7 H :    0.338240
   8 H :    0.337908
Sum of atomic charges:   -0.0000000

LOEWDIN ATOMIC CHARGES
----------------------
   0 O :   -0.335754
   1 H :    0.158653
   2 H :    0.176898
   3 O :   -0.338338
   4 H :    0.181374
   5 H :    0.156292
   6 O :   -0.338846
   7 H :    0.167925
   8 H :    0.171797

  Mayer bond orders larger than 0.100000
B(  0-O ,  1-H ) :   0.8523 B(  0-O ,  2-H ) :   0.8500 B(  3-O ,  4-H ) :   0.8428
B(  3-O ,  5-H ) :   0.8552 B(  6-O ,  7-H ) :   0.8516 B(  6-O ,  8-H ) :   0.8507

MP2 TOTAL ENERGY:     -228.936973133 Eh
FINAL SINGLE POINT ENERGY      -228.936973133268

DIPOLE MOMENT
-------------
                                X             Y             Z
Electronic contribution:      0.06251       0.25383      -0.23837
Nuclear contribution   :     -0.59718      -1.53239       1.40335
                        -----------------------------------------
Total Dipole Moment    :     -0.53468      -1.27857       1.16498
                        -----------------------------------------
Magnitude (a.u.)       :      1.81047
Magnitude (Debye)      :      4.60184

Rotational constants in cm-1:     0.398398     0.023495     0.022259
Rotational constants in MHz : 11943.661341   704.371715   667.302911

                             ****ORCA TERMINATED NORMALLY****
TOTAL RUN TIME: 0 days 0 hours 9 minutes 2 seconds 903 msec
