                         Program Version 4.2.0 -  RELEASE  -
|  1> # 5h2o.temelso.etal.dset.2h2o-orca.engrad-mp2.augccpvtz-0.to.49
|  2> ! MP2 aug-cc-pVTZ EnGrad TightSCF FrozenCore
|  3>
|  4> %pal
|  5>     nprocs 12
|  6> end
|  7>
|  8> %maxcore 8000
|  9>
| 10> %scf
| 11>     ConvForced true
| 12> end
| 13>
| 14> *xyz 0 1
| 15> O   0.497160595  -1.249618383  -0.416586660
| 16> H  -0.043539405  -1.499818383  -1.175586660
| 17> H   0.117360595  -0.392818383  -0.108786660
| 18> O  -0.459039405   1.174181617   0.391713340
| 19> H   0.261260595   1.844481617   0.454713340
| 20> H  -0.940239405   1.245681617   1.224513340
| 21> *
| 22>
| 23>
| 24> $new_job
| 25>
| 26> # 5h2o.temelso.etal.dset.2h2o-orca.engrad-mp2.augccpvtz-0.to.49
| 27> ! MP2 aug-cc-pVTZ EnGrad TightSCF FrozenCore
| 28>
| 29> %pal
| 30>     nprocs 12
| 31> end
| 32>
| 33> %maxcore 8000
| 34>
| 35> %scf
| 36>     ConvForced true
| 37> end
| 38>
| 39> *xyz 0 1
| 40> O  -0.578831567  -2.107646892  -0.458200057
| 41> H  -1.119531567  -2.357846892  -1.217200057
| 42> H  -0.958631567  -1.250846892  -0.150400057
| 43> O   0.570568433   2.075053108   0.453399943
| 44> H   0.815668433   2.514353108   1.276699943
| 45> H   1.393668433   1.611753108   0.167099943
| 46> *
| 47>
| 48>
| 49> $new_job
| 50>
| 51> # 5h2o.temelso.etal.dset.2h2o-orca.engrad-mp2.augccpvtz-0.to.49
| 52> ! MP2 aug-cc-pVTZ EnGrad TightSCF FrozenCore
| 53>
| 54> %pal
| 55>     nprocs 12
| 56> end
| 57>
| 58> %maxcore 8000
| 59>
| 60> %scf
| 61>     ConvForced true
| 62> end
| 63>
| 64> *xyz 0 1
| 65> O  -1.674917378  -1.409424094  -0.032778772
| 66> H  -2.215617378  -1.659624094  -0.791778772
| 67> H  -2.054717378  -0.552624094   0.275021228
| 68> O   1.712982622   1.412075906   0.112221228
| 69> H   1.504682622   0.462275906  -0.054878772
| 70> H   2.161382622   1.707875906  -0.689478772
| 71> *
| 72>
| 73>
| 74> $new_job
| 75>
| 76> # 5h2o.temelso.etal.dset.2h2o-orca.engrad-mp2.augccpvtz-0.to.49
| 77> ! MP2 aug-cc-pVTZ EnGrad TightSCF FrozenCore
| 78>
| 79> %pal
| 80>     nprocs 12
| 81> end
| 82>
| 83> %maxcore 8000
| 84>
| 85> %scf
| 86>     ConvForced true
| 87> end
| 88>
| 89> *xyz 0 1
| 90> O  -1.305991658  -0.107565929   0.159740451
| 91> H  -1.846691658  -0.357765929  -0.599259549
| 92> H  -1.685791658   0.749234071   0.467540451
| 93> O   1.389708342   0.120534071  -0.168859549
| 94> H   0.416208342  -0.004065929  -0.067559549
| 95> H   1.787308342  -0.593265929   0.344040451
| 96> *
| 97>
| 98>
| 99> $new_job
|100>
|101> # 5h2o.temelso.etal.dset.2h2o-orca.engrad-mp2.augccpvtz-0.to.49
|102> ! MP2 aug-cc-pVTZ EnGrad TightSCF FrozenCore
|103>
|104> %pal
|105>     nprocs 12
|106> end
|107>
|108> %maxcore 8000
|109>
|110> %scf
|111>     ConvForced true
|112> end
|113>
|114> *xyz 0 1
|115> O  -1.089368705  -0.899528801  -0.091729278
|116> H  -0.369068705  -0.229228801  -0.028729278
|117> H  -1.570568705  -0.828028801   0.741070722
|118> O   1.016231295   0.859371199   0.011570722
|119> H   1.261331295   1.298671199   0.834870722
|120> H   1.839331295   0.396071199  -0.274729278
|121> *
|122>
|123>
|124> $new_job
|125>
|126> # 5h2o.temelso.etal.dset.2h2o-orca.engrad-mp2.augccpvtz-0.to.49
|127> ! MP2 aug-cc-pVTZ EnGrad TightSCF FrozenCore
|128>
|129> %pal
|130>     nprocs 12
|131> end
|132>
|133> %maxcore 8000
|134>
|135> %scf
|136>     ConvForced true
|137> end
|138>
|139> *xyz 0 1
|140> O  -2.185454516  -0.201306003   0.333692007
|141> H  -1.465154516   0.468993997   0.396692007
|142> H  -2.666654516  -0.129806003   1.166492007
|143> O   2.158645484   0.196393997  -0.329607993
|144> H   1.950345484  -0.753406003  -0.496707993
|145> H   2.607045484   0.492193997  -1.131307993
|146> *
|147>
|148>
|149> $new_job
|150>
|151> # 5h2o.temelso.etal.dset.2h2o-orca.engrad-mp2.augccpvtz-0.to.49
|152> ! MP2 aug-cc-pVTZ EnGrad TightSCF FrozenCore
|153>
|154> %pal
|155>     nprocs 12
|156> end
|157>
|158> %maxcore 8000
|159>
|160> %scf
|161>     ConvForced true
|162> end
|163>
|164> *xyz 0 1
|165> O  -1.816528796   1.100552162   0.526211230
|166> H  -1.096228796   1.770852162   0.589211230
|167> H  -2.297728796   1.172052162   1.359011230
|168> O   1.835371204  -1.095147838  -0.610688770
|169> H   0.861871204  -1.219747838  -0.509388770
|170> H   2.232971204  -1.808947838  -0.097788770
|171> *
|172>
|173>
|174> $new_job
|175>
|176> # 5h2o.temelso.etal.dset.2h2o-orca.engrad-mp2.augccpvtz-0.to.49
|177> ! MP2 aug-cc-pVTZ EnGrad TightSCF FrozenCore
|178>
|179> %pal
|180>     nprocs 12
|181> end
|182>
|183> %maxcore 8000
|184>
|185> %scf
|186>     ConvForced true
|187> end
|188>
|189> *xyz 0 1
|190> O  -1.155846678   0.699565488   0.395378610
|191> H  -0.910746678   1.138865488   1.218678610
|192> H  -0.332746678   0.236265488   0.109078610
|193> O   1.082653322  -0.661634512  -0.371221390
|194> H   0.874353322  -1.611434512  -0.538321390
|195> H   1.531053322  -0.365834512  -1.172921390
|196> *
|197>
|198>
|199> $new_job
|200>
|201> # 5h2o.temelso.etal.dset.2h2o-orca.engrad-mp2.augccpvtz-0.to.49
|202> ! MP2 aug-cc-pVTZ EnGrad TightSCF FrozenCore
|203>
|204> %pal
|205>     nprocs 12
|206> end
|207>
|208> %maxcore 8000
|209>
|210> %scf
|211>     ConvForced true
|212> end
|213>
|214> *xyz 0 1
|215> O  -0.786920958   2.001423653   0.587897833
|216> H  -0.541820958   2.440723653   1.411197833
|217> H   0.036179042   1.538123653   0.301597833
|218> O   0.759379042  -1.953176347  -0.652302167
|219> H  -0.214120958  -2.077776347  -0.551002167
|220> H   1.156979042  -2.666976347  -0.139402167
|221> *
|222>
|223>
|224> $new_job
|225>
|226> # 5h2o.temelso.etal.dset.2h2o-orca.engrad-mp2.augccpvtz-0.to.49
|227> ! MP2 aug-cc-pVTZ EnGrad TightSCF FrozenCore
|228>
|229> %pal
|230>     nprocs 12
|231> end
|232>
|233> %maxcore 8000
|234>
|235> %scf
|236>     ConvForced true
|237> end
|238>
|239> *xyz 0 1
|240> O   0.355493231   1.338446451   0.246719118
|241> H   0.147193231   0.388646451   0.079619118
|242> H   0.803893231   1.634246451  -0.554980882
|243> O  -0.336706769  -1.254953549  -0.226880882
|244> H  -1.310206769  -1.379553549  -0.125580882
|245> H   0.060893231  -1.968753549   0.286019118
|246> *
|247>
|248>
|249> $new_job
|250>
|251> # 5h2o.temelso.etal.dset.2h2o-orca.engrad-mp2.augccpvtz-0.to.49
|252> ! MP2 aug-cc-pVTZ EnGrad TightSCF FrozenCore
|253>
|254> %pal
|255>     nprocs 12
|256> end
|257>
|258> %maxcore 8000
|259>
|260> %scf
|261>     ConvForced true
|262> end
|263>
|264> *xyz 0 1
|265> O   0.042550456   1.138528622   0.803151645
|266> H  -0.090249544   0.340228622   0.233751645
|267> H  -0.684149544   1.123928622   1.437251645
|268> O  -0.033649544  -1.084071378  -0.753248355
|269> H   0.916750456  -1.347271378  -0.783148355
|270> H  -0.283649544  -0.981371378  -1.680048355
|271> *
|272>
|273>
|274> $new_job
|275>
|276> # 5h2o.temelso.etal.dset.2h2o-orca.engrad-mp2.augccpvtz-0.to.49
|277> ! MP2 aug-cc-pVTZ EnGrad TightSCF FrozenCore
|278>
|279> %pal
|280>     nprocs 12
|281> end
|282>
|283> %maxcore 8000
|284>
|285> %scf
|286>     ConvForced true
|287> end
|288>
|289> *xyz 0 1
|290> O  -1.311174056   1.314839601   0.787972781
|291> H  -1.443974056   0.516539601   0.218572781
|292> H  -2.037874056   1.300239601   1.422072781
|293> O   1.317025944  -1.277960399  -0.842027219
|294> H   1.820025944  -1.966060399  -0.390127219
|295> H   1.568925944  -0.436160399  -0.392427219
|296> *
|297>
|298>
|299> $new_job
|300>
|301> # 5h2o.temelso.etal.dset.2h2o-orca.engrad-mp2.augccpvtz-0.to.49
|302> ! MP2 aug-cc-pVTZ EnGrad TightSCF FrozenCore
|303>
|304> %pal
|305>     nprocs 12
|306> end
|307>
|308> %maxcore 8000
|309>
|310> %scf
|311>     ConvForced true
|312> end
|313>
|314> *xyz 0 1
|315> O  -1.414789684   0.117825204   0.138758363
|316> H  -1.547589684  -0.680474796  -0.430641637
|317> H  -2.141489684   0.103225204   0.772858363
|318> O   1.517410316  -0.115374796  -0.141141637
|319> H   1.369110316   0.688725204  -0.673641637
|320> H   0.690910316  -0.150374796   0.369258363
|321> *
|322>
|323>
|324> $new_job
|325>
|326> # 5h2o.temelso.etal.dset.2h2o-orca.engrad-mp2.augccpvtz-0.to.49
|327> ! MP2 aug-cc-pVTZ EnGrad TightSCF FrozenCore
|328>
|329> %pal
|330>     nprocs 12
|331> end
|332>
|333> %maxcore 8000
|334>
|335> %scf
|336>     ConvForced true
|337> end
|338>
|339> *xyz 0 1
|340> O  -0.699472039  -0.983468232   0.652447966
|341> H  -0.832272039  -1.781768232   0.083047966
|342> H  -1.426172039  -0.998068232   1.286547966
|343> O   0.786427961   1.008531768  -0.705652034
|344> H   0.791627961   1.875231768  -0.281152034
|345> H   0.086427961   0.506731768  -0.243852034
|346> *
|347>
|348>
|349> $new_job
|350>
|351> # 5h2o.temelso.etal.dset.2h2o-orca.engrad-mp2.augccpvtz-0.to.49
|352> ! MP2 aug-cc-pVTZ EnGrad TightSCF FrozenCore
|353>
|354> %pal
|355>     nprocs 12
|356> end
|357>
|358> %maxcore 8000
|359>
|360> %scf
|361>     ConvForced true
|362> end
|363>
|364> *xyz 0 1
|365> O  -1.392908664   0.185290214   0.038344093
|366> H  -0.442508664  -0.077909786   0.008444093
|367> H  -1.642908664   0.287990214  -0.888455907
|368> O   1.311491336  -0.184909786  -0.035255907
|369> H   1.814491336  -0.873009786   0.416644093
|370> H   1.563391336   0.656890214   0.414344093
|371> *
|372>
|373>
|374> $new_job
|375>
|376> # 5h2o.temelso.etal.dset.2h2o-orca.engrad-mp2.augccpvtz-0.to.49
|377> ! MP2 aug-cc-pVTZ EnGrad TightSCF FrozenCore
|378>
|379> %pal
|380>     nprocs 12
|381> end
|382>
|383> %maxcore 8000
|384>
|385> %scf
|386>     ConvForced true
|387> end
|388>
|389> *xyz 0 1
|390> O  -1.496524292  -1.011724183  -0.610870326
|391> H  -0.546124292  -1.274924183  -0.640770326
|392> H  -1.746524292  -0.909024183  -1.537670326
|393> O   1.511875708   0.977675817   0.665629674
|394> H   1.363575708   1.781775817   0.133129674
|395> H   0.685375708   0.942675817   1.176029674
|396> *
|397>
|398>
|399> $new_job
|400>
|849> $new_job
|850>
|851> # 5h2o.temelso.etal.dset.2h2o-orca.engrad-mp2.augccpvtz-0.to.49
|852> ! MP2 aug-cc-pVTZ EnGrad TightSCF FrozenCore
|853>
|854> %pal
|855>     nprocs 12
|856> end
|857>
|858> %maxcore 8000
|859>
|860> %scf
|861>     ConvForced true
|862> end
|863>
|864> *xyz 0 1
|865> O  -0.971213552  -0.415184868   0.876406688
|866> H  -0.209513552   0.022515132   0.417806688
|867> H  -0.799713552  -0.326384868   1.821406688
|868> O   0.948986448   0.394015132  -0.843393312
|869> H   0.837186448  -0.428484868  -1.345693312
|870> H   0.524886448   1.068415132  -1.417593312
|871> *
|872>
|873>
|874> $new_job
|875>
|876> # 5h2o.temelso.etal.dset.2h2o-orca.engrad-mp2.augccpvtz-0.to.49
|877> ! MP2 aug-cc-pVTZ EnGrad TightSCF FrozenCore
|878>
|879> %pal
|880>     nprocs 12
|881> end
|882>
|883> %maxcore 8000
|884>
|885> %scf
|886>     ConvForced true
|887> end
|888>
|889> *xyz 0 1
|890> O  -0.143298000  -1.234692329   1.631223242
|891> H   0.618402000  -0.796992329   1.172623242
|892> H   0.028202000  -1.145892329   2.576223242
|893> O   0.135102000   1.232907671  -1.617376758
|894> H  -0.651598000   0.689307671  -1.387676758
|895> H   0.135102000   1.281907671  -2.580976758
|896> *
|897>
|898>
|899> $new_job
|900>
|901> # 5h2o.temelso.etal.dset.2h2o-orca.engrad-mp2.augccpvtz-0.to.49
|902> ! MP2 aug-cc-pVTZ EnGrad TightSCF FrozenCore
|903>
|904> %pal
|905>     nprocs 12
|906> end
|907>
|908> %maxcore 8000
|909>
|910> %scf
|911>     ConvForced true
|912> end
|913>
|914> *xyz 0 1
|915> O   0.772531853  -0.309864137   1.156026128
|916> H   1.534231853   0.127835863   0.697426128
|917> H   0.944031853  -0.221064137   2.101026128
|918> O  -0.857468147   0.326535863  -1.222673872
|919> H  -0.711068147   0.332135863  -0.261573872
|920> H  -0.418868147  -0.503564137  -1.478873872
|921> *
|922>
|923>
|924> $new_job
|925>
|926> # 5h2o.temelso.etal.dset.2h2o-orca.engrad-mp2.augccpvtz-0.to.49
|927> ! MP2 aug-cc-pVTZ EnGrad TightSCF FrozenCore
|928>
|929> %pal
|930>     nprocs 12
|931> end
|932>
|933> %maxcore 8000
|934>
|935> %scf
|936>     ConvForced true
|937> end
|938>
|939> *xyz 0 1
|940> O   0.857896687  -0.811221949   0.815041768
|941> H   0.746096687  -1.633721949   0.312741768
|942> H   0.433796687  -0.136821949   0.240841768
|943> O  -0.783903313   0.847178051  -0.713758232
|944> H  -1.570603313   0.303578051  -0.484058232
|945> H  -0.783903313   0.896178051  -1.677358232
|946> *
|947>
|948>
|949> $new_job
|950>
|951> # 5h2o.temelso.etal.dset.2h2o-orca.engrad-mp2.augccpvtz-0.to.49
|952> ! MP2 aug-cc-pVTZ EnGrad TightSCF FrozenCore
|953>
|954> %pal
|955>     nprocs 12
|956> end
|957>
|958> %maxcore 8000
|959>
|960> %scf
|961>     ConvForced true
|962> end
|963>
|964> *xyz 0 1
|965> O   1.773726541   0.113606244   0.339844654
|966> H   1.661926541  -0.708893756  -0.162455346
|967> H   1.349626541   0.788006244  -0.234355346
|968> O  -1.776473459  -0.059193756  -0.319055346
|969> H  -1.630073459  -0.053593756   0.642044654
|970> H  -1.337873459  -0.889293756  -0.575255346
|971> *
|972>
|973>
|974> $new_job
|975>
|976> # 5h2o.temelso.etal.dset.2h2o-orca.engrad-mp2.augccpvtz-0.to.49
|977> ! MP2 aug-cc-pVTZ EnGrad TightSCF FrozenCore
|978>
|979> %pal
|980>     nprocs 12
|981> end
|982>
|983> %maxcore 8000
|984>
|985> %scf
|986>     ConvForced true
|987> end
|988>
|989> *xyz 0 1
|990> O   0.959842093   0.952498783  -0.434138792
|991> H   0.173142093   0.408898783  -0.204438792
|992> H   0.959842093   1.001498783  -1.397738792
|993> O  -0.948557907  -0.878701217   0.435761208
|994> H  -0.802157907  -0.873101217   1.396861208
|995> H  -0.509957907  -1.708801217   0.179561208
|996> *
|997>
|998>
|999> $new_job
|1000>
|1001> # 5h2o.temelso.etal.dset.2h2o-orca.engrad-mp2.augccpvtz-0.to.49
|1002> ! MP2 aug-cc-pVTZ EnGrad TightSCF FrozenCore
|1003>
|1004> %pal
|1005>     nprocs 12
|1006> end
|1007>
|1008> %maxcore 8000
|1009>
|1010> %scf
|1011>     ConvForced true
|1012> end
|1013>
|1014> *xyz 0 1
|1015> O   0.906881075   0.880745169   0.620009853
|1016> H   0.405581075   0.214345169   0.096509853
|1017> H   1.824781075   0.791645169   0.336009853
|1018> O  -0.881218925  -0.816754831  -0.614790147
|1019> H  -1.669518925  -0.327354831  -0.293490147
|1020> H  -0.968218925  -1.694454831  -0.221890147
|1021> *
|1022>
|1023>
|1024> $new_job
|1025>
|1026> # 5h2o.temelso.etal.dset.2h2o-orca.engrad-mp2.augccpvtz-0.to.49
|1027> ! MP2 aug-cc-pVTZ EnGrad TightSCF FrozenCore
|1028>
|1029> %pal
|1030>     nprocs 12
|1031> end
|1032>
|1033> %maxcore 8000
|1034>
|1035> %scf
|1036>     ConvForced true
|1037> end
|1038>
|1039> *xyz 0 1
|1040> O   1.825211199   0.052245983  -0.011420123
|1041> H   1.323911199  -0.614154017  -0.534920123
|1042> H   2.743111199  -0.036854017  -0.295420123
|1043> O  -1.824388801  -0.007954017  -0.004720123
|1044> H  -2.746588801  -0.153154017   0.238979877
|1045> H  -1.333488801   0.101045983   0.847579877
|1046> *
|1047>
|1048>
|1049> $new_job
|1050>
|1051> # 5h2o.temelso.etal.dset.2h2o-orca.engrad-mp2.augccpvtz-0.to.49
|1052> ! MP2 aug-cc-pVTZ EnGrad TightSCF FrozenCore
|1053>
|1054> %pal
|1055>     nprocs 12
|1056> end
|1057>
|1058> %maxcore 8000
|1059>
|1060> %scf
|1061>     ConvForced true
|1062> end
|1063>
|1064> *xyz 0 1
|1065> O   0.956402971  -0.274388288  -0.995018569
|1066> H   0.455102971  -0.940788288  -1.518518569
|1067> H   1.874302971  -0.363488288  -1.279018569
|1068> O  -1.029697029   0.288911712   1.079781431
|1069> H  -0.971697029   1.177711712   0.678981431
|1070> H  -0.194197029  -0.103988288   0.772981431
|1071> *
|1072>
|1073>
|1074> $new_job
|1075>
|1076> # 5h2o.temelso.etal.dset.2h2o-orca.engrad-mp2.augccpvtz-0.to.49
|1077> ! MP2 aug-cc-pVTZ EnGrad TightSCF FrozenCore
|1078>
|1079> %pal
|1080>     nprocs 12
|1081> end
|1082>
|1083> %maxcore 8000
|1084>
|1085> %scf
|1086>     ConvForced true
|1087> end
|1088>
|1089> *xyz 0 1
|1090> O   0.883129109  -1.131328476   0.117012760
|1091> H   0.381829109  -1.797728476  -0.406487240
|1092> H   1.801029109  -1.220428476  -0.166987240
|1093> O  -0.905070891   1.235571524  -0.043987240
|1094> H  -1.669770891   0.737371524  -0.373287240
|1095> H  -0.164770891   0.625971524  -0.212487240
|1096> *
|1097>
|1098>
|1099> $new_job
|1100>
|1101> # 5h2o.temelso.etal.dset.2h2o-orca.engrad-mp2.augccpvtz-0.to.49
|1102> ! MP2 aug-cc-pVTZ EnGrad TightSCF FrozenCore
|1103>
|1104> %pal
|1105>     nprocs 12
|1106> end
|1107>
|1108> %maxcore 8000
|1109>
|1110> %scf
|1111>     ConvForced true
|1112> end
|1113>
|1114> *xyz 0 1
|1115> O   0.967299124  -0.806775591  -0.671386174
|1116> H   0.178999124  -0.317375591  -0.350086174
|1117> H   0.880299124  -1.684475591  -0.278486174
|1118> O  -0.894200876   0.830524409   0.570113826
|1119> H  -1.816400876   0.685324409   0.813813826
|1120> H  -0.403300876   0.939524409   1.422413826
|1121> *
|1122>
|1123>
|1124> $new_job
|1125>
|1126> # 5h2o.temelso.etal.dset.2h2o-orca.engrad-mp2.augccpvtz-0.to.49
|1127> ! MP2 aug-cc-pVTZ EnGrad TightSCF FrozenCore
|1128>
|1129> %pal
|1130>     nprocs 12
|1131> end
|1132>
|1133> %maxcore 8000
|1134>
|1135> %scf
|1136>     ConvForced true
|1137> end
|1138>
|1139> *xyz 0 1
|1140> O   0.098490897  -1.133409862  -1.654984620
|1141> H  -0.689809103  -0.644009862  -1.333684620
|1142> H   0.011490897  -2.011109862  -1.262084620
|1143> O  -0.099509103   1.127390138   1.654615380
|1144> H  -0.041509103   2.016190138   1.253815380
|1145> H   0.735990897   0.734490138   1.347815380
|1146> *
|1147>
|1148>
|1149> $new_job
|1150>
|1151> # 5h2o.temelso.etal.dset.2h2o-orca.engrad-mp2.augccpvtz-0.to.49
|1152> ! MP2 aug-cc-pVTZ EnGrad TightSCF FrozenCore
|1153>
|1154> %pal
|1155>     nprocs 12
|1156> end
|1157>
|1158> %maxcore 8000
|1159>
|1160> %scf
|1161>     ConvForced true
|1162> end
|1163>
|1164> *xyz 0 1
|1165> O   0.025217034  -1.990350050  -0.542953291
|1166> H  -0.763082966  -1.500950050  -0.221653291
|1167> H  -0.061782966  -2.868050050  -0.150053291
|1168> O   0.025117034   2.074049950   0.530846709
|1169> H  -0.739582966   1.575849950   0.201546709
|1170> H   0.765417034   1.464449950   0.362346709
|1171> *
|1172>
|1173>
|1174> $new_job
|1175>
|1176> # 5h2o.temelso.etal.dset.2h2o-orca.engrad-mp2.augccpvtz-0.to.49
|1177> ! MP2 aug-cc-pVTZ EnGrad TightSCF FrozenCore
|1178>
|1179> %pal
|1180>     nprocs 12
|1181> end
|1182>
|1183> %maxcore 8000
|1184>
|1185> %scf
|1186>     ConvForced true
|1187> end
|1188>
|1189> *xyz 0 1
|1190> O  -0.844678980  -0.324609048  -1.044914595
|1191> H  -1.766878980  -0.469809048  -0.801214595
|1192> H  -0.353778980  -0.215609048  -0.192614595
|1193> O   0.818821020   0.298890952   1.023185405
|1194> H   0.876821020   1.187690952   0.622385405
|1195> H   1.654321020  -0.094009048   0.716385405
|1196> *
|1197>
|1198>
|1199> $new_job
|1200>
|1201> # 5h2o.temelso.etal.dset.2h2o-orca.engrad-mp2.augccpvtz-0.to.49
|1202> ! MP2 aug-cc-pVTZ EnGrad TightSCF FrozenCore
|1203>
|1204> %pal
|1205>     nprocs 12
|1206> end
|1207>
|1208> %maxcore 8000
|1209>
|1210> %scf
|1211>     ConvForced true
|1212> end
|1213>
|1214> *xyz 0 1
|1215> O  -0.917952843  -1.181549236   0.067116733
|1216> H  -1.840152843  -1.326749236   0.310816733
|1217> H  -0.427052843  -1.072549236   0.919416733
|1218> O   0.943447157   1.245550764  -0.100583267
|1219> H   0.178747157   0.747350764  -0.429883267
|1220> H   1.683747157   0.635950764  -0.269083267
|1221> *
|1222>
|1223>
|1224> $new_job
|1225>
|1226> # 5h2o.temelso.etal.dset.2h2o-orca.engrad-mp2.augccpvtz-0.to.49
|1227> ! MP2 aug-cc-pVTZ EnGrad TightSCF FrozenCore
|1228>
|1229> %pal
|1230>     nprocs 12
|1231> end
|1232>
|1233> %maxcore 8000
|1234>
|1235> %scf
|1236>     ConvForced true
|1237> end
|1238>
|1239> *xyz 0 1
|1240> O  -0.123261070  -0.884683508   1.151618287
|1241> H  -0.065261070   0.004116492   0.750818287
|1242> H   0.712238930  -1.277583508   0.844818287
|1243> O   0.074638930   0.918916492  -1.084181713
|1244> H  -0.690061070   0.420716492  -1.413481713
|1245> H   0.814938930   0.309316492  -1.252681713
|1246> *
|1247>
|1248>                          ****END OF INPUT****
 Total Charge           Charge          ....    0
 Multiplicity           Mult            ....    1
 Number of Electrons    NEL             ....   20
MP2 TOTAL ENERGY:     -152.664459129 Eh
FINAL SINGLE POINT ENERGY      -152.664459128592
MP2 TOTAL ENERGY:     -152.658560317 Eh
FINAL SINGLE POINT ENERGY      -152.658560316806
MP2 TOTAL ENERGY:     -152.658443121 Eh
FINAL SINGLE POINT ENERGY      -152.658443121375
MP2 TOTAL ENERGY:     -152.664444214 Eh
FINAL SINGLE POINT ENERGY      -152.664444214132
MP2 TOTAL ENERGY:     -152.663616273 Eh
FINAL SINGLE POINT ENERGY      -152.663616273423
MP2 TOTAL ENERGY:     -152.658573913 Eh
FINAL SINGLE POINT ENERGY      -152.658573913221
FINAL SINGLE POINT ENERGY      -152.658420141753
FINAL SINGLE POINT ENERGY      -152.664455103323
FINAL SINGLE POINT ENERGY      -152.658426657631
FINAL SINGLE POINT ENERGY      -152.664414323770
FINAL SINGLE POINT ENERGY      -152.664790115844
FINAL SINGLE POINT ENERGY      -152.659014826359
FINAL SINGLE POINT ENERGY      -152.663262458134
FINAL SINGLE POINT ENERGY      -152.662358382209
MP2 TOTAL ENERGY:     -152.663644516 Eh
FINAL SINGLE POINT ENERGY      -152.663644515985
MP2 TOTAL ENERGY:     -152.659312936 Eh
FINAL SINGLE POINT ENERGY      -152.659312935579
MP2 TOTAL ENERGY:     -152.657834423 Eh
FINAL SINGLE POINT ENERGY      -152.657834422537
MP2 TOTAL ENERGY:     -152.663888707 Eh
FINAL SINGLE POINT ENERGY      -152.663888707455
MP2 TOTAL ENERGY:     -152.662935901 Eh
FINAL SINGLE POINT ENERGY      -152.662935901113

CARTESIAN COORDINATES (ANGSTROEM)
---------------------------------
  O     -0.123261   -0.884684    1.151618
  H     -0.065261    0.004116    0.750818
  H      0.712239   -1.277584    0.844818
  O      0.074639    0.918916   -1.084182
  H     -0.690061    0.420716   -1.413482
  H      0.814939    0.309316   -1.252682

 Multiplicity           Mult            ....    1
 Number of Electrons    NEL             ....   20
 Basis Dimension        Dim             ....  184

ORBITAL ENERGIES
----------------

  NO   OCC          E(Eh)            E(eV)
   0   2.0000     -20.591780      -560.3308
   1   2.0000     -20.557474      -559.3973
   2   2.0000      -1.372944       -37.3597
   3   2.0000      -1.335513       -36.3412
   4   2.0000      -0.729345       -19.8465
   5   2.0000      -0.693001       -18.8575
   6   2.0000      -0.609408       -16.5828
   7   2.0000      -0.587072       -15.9750
   8   2.0000      -0.528510       -14.3815
   9   2.0000      -0.495974       -13.4961
  10   0.0000       0.021041         0.5725
  11   0.0000       0.043332         1.1791
  12   0.0000       0.053316         1.4508
  13   0.0000       0.061724         1.6796
  14   0.0000       0.126172         3.4333

MULLIKEN ATOMIC CHARGES
-----------------------
   0 O :   -0.488492
   1 H :    0.282827
   2 H :    0.204163
   3 O :   -0.474552
   4 H :    0.242416
   5 H :    0.233638
Sum of atomic charges:    0.0000000

LOEWDIN ATOMIC CHARGES
----------------------
   0 O :    1.018971
   1 H :   -0.618513
   2 H :   -0.503626
   3 O :    1.048497
   4 H :   -0.470914
   5 H :   -0.474416

  Mayer bond orders larger than 0.100000
B(  0-O ,  1-H ) :   0.8868 B(  0-O ,  2-H ) :   0.9574 B(  3-O ,  4-H ) :   0.9238
B(  3-O ,  5-H ) :   0.9228

MP2 TOTAL ENERGY:     -152.660766309 Eh
FINAL SINGLE POINT ENERGY      -152.660766308779

DIPOLE MOMENT
-------------
                                X             Y             Z
Electronic contribution:     -0.22742       0.23152       0.15714
Nuclear contribution   :      0.72340      -0.50932      -1.00333
                        -----------------------------------------
Total Dipole Moment    :      0.49599      -0.27780      -0.84618
                        -----------------------------------------
Magnitude (a.u.)       :      1.01941
Magnitude (Debye)      :      2.59114

Rotational constants in cm-1:     5.815151     0.231349     0.227968
Rotational constants in MHz : 174333.846603  6935.664515  6834.300114

                             ****ORCA TERMINATED NORMALLY****
TOTAL RUN TIME: 0 days 0 hours 18 minutes 30 seconds 167 msec
