                         Program Version 4.2.0 -  RELEASE  -
|  1> # 4meoh.boyd.etal.dset.1meoh.dset-orca.engrad-mp2.def2tzvp
|  2> ! MP2 def2-TZVP EnGrad TightSCF FrozenCore
|  3>
|  4> %pal
|  5>     nprocs 12
|  6> end
|  7>
|  8> %maxcore 8000
|  9>
| 10> %scf
| 11>     ConvForced true
| 12> end
| 13>
| 14> *xyz 0 1
| 15> O   0.254748627  -0.299343795   0.572145169
| 16> H   1.231760963  -0.116185782   0.562373955
| 17> C  -0.319257525   0.294773440  -0.585126288
| 18> H  -1.379570024   0.026931643  -0.604549160
| 19> H   0.147894747  -0.061511019  -1.514582981
| 20> H  -0.239782216   1.390147652  -0.553333738
| 21> *
| 22>
| 23>
| 24> $new_job
| 25>
| 26> # 4meoh.boyd.etal.dset.1meoh.dset-orca.engrad-mp2.def2tzvp
| 27> ! MP2 def2-TZVP EnGrad TightSCF FrozenCore
| 28>
| 29> %pal
| 30>     nprocs 12
| 31> end
| 32>
| 33> %maxcore 8000
| 34>
| 35> %scf
| 36>     ConvForced true
| 37> end
| 38>
| 39> *xyz 0 1
| 40> O   0.314790644   0.216968044  -0.579248221
| 41> H   0.138212549   1.193650090  -0.635746070
| 42> C  -0.310830058  -0.280547237   0.596422819
| 43> H  -0.084686058  -1.348389730   0.666608269
| 44> H  -1.401967923  -0.160834819   0.549724523
| 45> H   0.055180303   0.214349913   1.507651665
| 46> *
| 47>
| 48>
| 49> $new_job
| 50>
| 51> # 4meoh.boyd.etal.dset.1meoh.dset-orca.engrad-mp2.def2tzvp
| 52> ! MP2 def2-TZVP EnGrad TightSCF FrozenCore
| 53>
| 54> %pal
| 55>     nprocs 12
| 56> end
| 57>
| 58> %maxcore 8000
| 59>
| 60> %scf
| 61>     ConvForced true
| 62> end
| 63>
| 64> *xyz 0 1
| 65> O  -0.192662981   0.347842494   0.568955662
| 66> H  -1.165673887   0.174112094   0.674281488
| 67> C   0.255480747  -0.344874972  -0.588857043
| 68> H   1.316061101  -0.114253123  -0.724212012
| 69> H  -0.286881314  -0.040093448  -1.495468380
| 70> H   0.150582889  -1.432025434  -0.469604626
| 71> *
| 72>
| 73>
| 74> $new_job
| 75>
| 76> # 4meoh.boyd.etal.dset.1meoh.dset-orca.engrad-mp2.def2tzvp
| 77> ! MP2 def2-TZVP EnGrad TightSCF FrozenCore
| 78>
| 79> %pal
| 80>     nprocs 12
| 81> end
| 82>
| 83> %maxcore 8000
| 84>
| 85> %scf
| 86>     ConvForced true
| 87> end
| 88>
| 89> *xyz 0 1
| 90> O  -0.344794639  -0.237909563  -0.553496096
| 91> H  -0.174960987  -1.216886097  -0.577230193
| 92> C   0.341956862   0.302163096   0.568174992
| 93> H   0.128159586   1.374234530   0.603765015
| 94> H   1.428334922   0.169103210   0.473260498
| 95> H   0.017115709  -0.150367826   1.516245182
| 96> *
| 97>
| 98>
| 99> $new_job
|100>
|101> # 4meoh.boyd.etal.dset.1meoh.dset-orca.engrad-mp2.def2tzvp
|102> ! MP2 def2-TZVP EnGrad TightSCF FrozenCore
|103>
|104> %pal
|105>     nprocs 12
|106> end
|107>
|108> %maxcore 8000
|109>
|110> %scf
|111>     ConvForced true
|112> end
|113>
|114> *xyz 0 1
|115> O  -0.309400314   0.153694686   0.601337880
|116> H   0.416016319   0.231658304   1.274857753
|117> C   0.273188844  -0.161177861  -0.655564767
|118> H  -0.534848095  -0.219317385  -1.390345891
|119> H   0.783927630  -1.133801373  -0.628124555
|120> H   0.991135461   0.602246838  -0.990543682
|121> *
|122>
|123>
|124> $new_job
|125>
|126> # 4meoh.boyd.etal.dset.1meoh.dset-orca.engrad-mp2.def2tzvp
|127> ! MP2 def2-TZVP EnGrad TightSCF FrozenCore
|128>
|129> %pal
|130>     nprocs 12
|131> end
|132>
|133> %maxcore 8000
|134>
|135> %scf
|136>     ConvForced true
|137> end
|138>
|139> *xyz 0 1
|140> O   0.661526924   0.115219609  -0.174906690
|141> H   1.030338424  -0.772396872  -0.424954332
|142> C  -0.698469979  -0.064551110   0.194823720
|143> H  -1.095939758   0.911891197   0.487190036
|144> H  -0.816681262  -0.758773856   1.039868507
|145> H  -1.296083066  -0.440580129  -0.647089084
|146> *
|147>
|148>
|149> $new_job
|150>
|151> # 4meoh.boyd.etal.dset.1meoh.dset-orca.engrad-mp2.def2tzvp
|152> ! MP2 def2-TZVP EnGrad TightSCF FrozenCore
|153>
|154> %pal
|155>     nprocs 12
|156> end
|157>
|158> %maxcore 8000
|159>
|160> %scf
|161>     ConvForced true
|162> end
|163>
|164> *xyz 0 1
|165> O   0.310551786  -0.151210272  -0.601377472
|166> H  -0.413862026  -0.228648966  -1.276056902
|167> C  -0.274426379   0.158606403   0.655673012
|168> H   0.532439562   0.215853655   1.391810653
|169> H  -0.991467199  -0.607182183   0.987158241
|170> H  -0.786874088   1.130394044   0.630583010
|171> *
|172>
|173>
|174> $new_job
|175>
|176> # 4meoh.boyd.etal.dset.1meoh.dset-orca.engrad-mp2.def2tzvp
|177> ! MP2 def2-TZVP EnGrad TightSCF FrozenCore
|178>
|179> %pal
|180>     nprocs 12
|181> end
|182>
|183> %maxcore 8000
|184>
|185> %scf
|186>     ConvForced true
|187> end
|188>
|189> *xyz 0 1
|190> O  -0.661859832  -0.113766903   0.174574793
|191> H  -1.029193887   0.774608761   0.424165827
|192> C   0.698710685   0.063020215  -0.194461333
|193> H   1.094977818  -0.914731443  -0.484077511
|194> H   1.296237529   0.440210901   0.646996270
|195> H   0.818760671   0.754952775  -1.041149250
|196> *
|197>
|198>
|199> $new_job
|200>
|201> # 4meoh.boyd.etal.dset.1meoh.dset-orca.engrad-mp2.def2tzvp
|202> ! MP2 def2-TZVP EnGrad TightSCF FrozenCore
|203>
|204> %pal
|205>     nprocs 12
|206> end
|207>
|208> %maxcore 8000
|209>
|210> %scf
|211>     ConvForced true
|212> end
|213>
|214> *xyz 0 1
|215> O  -0.038881200  -0.060893893   0.690859142
|216> H   0.899026368  -0.021143026   1.014645813
|217> C  -0.016635302   0.060629594  -0.726484618
|218> H  -1.053472908   0.070278174  -1.074405743
|219> H   0.496888677  -0.791869129  -1.191803797
|220> H   0.473009533   0.986925571  -1.058610979
|221> *
|222>
|223>
|224> $new_job
|225>
|226> # 4meoh.boyd.etal.dset.1meoh.dset-orca.engrad-mp2.def2tzvp
|227> ! MP2 def2-TZVP EnGrad TightSCF FrozenCore
|228>
|229> %pal
|230>     nprocs 12
|231> end
|232>
|233> %maxcore 8000
|234>
|235> %scf
|236>     ConvForced true
|237> end
|238>
|239> *xyz 0 1
|240> O   0.484113097   0.244992413  -0.431978236
|241> H   0.722187562  -0.513443673  -1.028374033
|242> C  -0.508678258  -0.205103345   0.478130070
|243> H  -0.748483731   0.626087706   1.147890622
|244> H  -0.168811959  -1.057137176   1.085888909
|245> H  -1.428480500  -0.500609085  -0.045417922
|246> *
|247>
|248>
|249> $new_job
|250>
|251> # 4meoh.boyd.etal.dset.1meoh.dset-orca.engrad-mp2.def2tzvp
|252> ! MP2 def2-TZVP EnGrad TightSCF FrozenCore
|253>
|254> %pal
|255>     nprocs 12
|256> end
|257>
|258> %maxcore 8000
|259>
|260> %scf
|261>     ConvForced true
|262> end
|263>
|264> *xyz 0 1
|265> O  -0.008834286  -0.054624894  -0.690579793
|266> H  -0.963640168  -0.126099330  -0.952007119
|267> C   0.066246481   0.059227787   0.721718484
|268> H   1.123044988   0.136934088   0.993516576
|269> H  -0.362038417  -0.812213125   1.240786109
|270> H  -0.446530693   0.962756439   1.080238689
|271> *
|272>
|273>
|274> $new_job
|275>
|276> # 4meoh.boyd.etal.dset.1meoh.dset-orca.engrad-mp2.def2tzvp
|277> ! MP2 def2-TZVP EnGrad TightSCF FrozenCore
|278>
|279> %pal
|280>     nprocs 12
|281> end
|282>
|283> %maxcore 8000
|284>
|285> %scf
|286>     ConvForced true
|287> end
|288>
|289> *xyz 0 1
|290> O  -0.307322584   0.438700947  -0.440292648
|291> H  -0.501131817   1.261737765   0.079094286
|292> C   0.325301352  -0.498213307   0.419454180
|293> H   0.514593750  -1.405741443  -0.160769715
|294> H  -0.299607938  -0.765176859   1.285054530
|295> H   1.288412362  -0.118211778   0.787788517
|296> *
|297>
|298>
|299> $new_job
|300>
|301> # 4meoh.boyd.etal.dset.1meoh.dset-orca.engrad-mp2.def2tzvp
|302> ! MP2 def2-TZVP EnGrad TightSCF FrozenCore
|303>
|304> %pal
|305>     nprocs 12
|306> end
|307>
|308> %maxcore 8000
|309>
|310> %scf
|311>     ConvForced true
|312> end
|313>
|314> *xyz 0 1
|315> O  -0.161245517   0.314868367   0.596827345
|316> H   0.708638431   0.509129794   1.030236084
|317> C   0.112620462  -0.334180251  -0.635846994
|318> H  -0.845444204  -0.583163883  -1.101440257
|319> H   0.687914141  -1.263502441  -0.503940932
|320> H   0.666590053   0.321286609  -1.322368920
|321> *
|322>
|323>
|324> $new_job
|325>
|326> # 4meoh.boyd.etal.dset.1meoh.dset-orca.engrad-mp2.def2tzvp
|327> ! MP2 def2-TZVP EnGrad TightSCF FrozenCore
|328>
|329> %pal
|330>     nprocs 12
|331> end
|332>
|333> %maxcore 8000
|334>
|335> %scf
|336>     ConvForced true
|337> end
|338>
|339> *xyz 0 1
|340> O   0.543618698   0.387717877   0.180034491
|341> H   0.711789165   1.023578142  -0.561595373
|342> C  -0.565336193  -0.434971547  -0.140068860
|343> H  -0.736512482  -1.106024874   0.706689854
|344> H  -0.392036393  -1.048724473  -1.037638538
|345> H  -1.476308942   0.159513357  -0.296341324
|346> *
|347>
|348>
|349> $new_job
|350>
|351> # 4meoh.boyd.etal.dset.1meoh.dset-orca.engrad-mp2.def2tzvp
|352> ! MP2 def2-TZVP EnGrad TightSCF FrozenCore
|353>
|354> %pal
|355>     nprocs 12
|356> end
|357>
|358> %maxcore 8000
|359>
|360> %scf
|361>     ConvForced true
|362> end
|363>
|364> *xyz 0 1
|365> O  -0.161737327   0.575557812   0.352010061
|366> H  -1.140571073   0.681977377   0.238428755
|367> C   0.224200305  -0.594415553  -0.353628678
|368> H   1.309437227  -0.696484164  -0.261400244
|369> H  -0.031462148  -0.544840051  -1.423296869
|370> H  -0.241503508  -1.494226811   0.072160812
|371> *
|372>
|373>
|374> $new_job
|375>
|376> # 4meoh.boyd.etal.dset.1meoh.dset-orca.engrad-mp2.def2tzvp
|377> ! MP2 def2-TZVP EnGrad TightSCF FrozenCore
|378>
|379> %pal
|380>     nprocs 12
|381> end
|382>
|383> %maxcore 8000
|384>
|385> %scf
|386>     ConvForced true
|387> end
|388>
|389> *xyz 0 1
|390> O  -0.666298167  -0.051376607   0.177872757
|391> H  -0.765495655  -0.876728639   0.717837287
|392> C   0.686989686   0.101451013  -0.214834437
|393> H   0.764126819   1.031013927  -0.786309712
|394> H   1.039139482  -0.725340783  -0.851055594
|395> H   1.353137673   0.177728958   0.655879096
|396> *
|397>
|398>
|399> $new_job
|400>
|799> $new_job
|800>
|801> # 4meoh.boyd.etal.dset.1meoh.dset-orca.engrad-mp2.def2tzvp
|802> ! MP2 def2-TZVP EnGrad TightSCF FrozenCore
|803>
|804> %pal
|805>     nprocs 12
|806> end
|807>
|808> %maxcore 8000
|809>
|810> %scf
|811>     ConvForced true
|812> end
|813>
|814> *xyz 0 1
|815> O  -0.007690424   0.058913185   0.694556620
|816> H   0.942005945   0.060799161   0.985061046
|817> C  -0.049109981  -0.060817115  -0.730559763
|818> H  -1.074611603   0.146537448  -1.047038560
|819> H   0.215748398  -1.076884284  -1.045513330
|820> H   0.624142689   0.659033513  -1.212819587
|821> *
|822>
|823>
|824> $new_job
|825>
|826> # 4meoh.boyd.etal.dset.1meoh.dset-orca.engrad-mp2.def2tzvp
|827> ! MP2 def2-TZVP EnGrad TightSCF FrozenCore
|828>
|829> %pal
|830>     nprocs 12
|831> end
|832>
|833> %maxcore 8000
|834>
|835> %scf
|836>     ConvForced true
|837> end
|838>
|839> *xyz 0 1
|840> O   0.674414545   0.057629975  -0.139260644
|841> H   0.862379478   1.016887515  -0.136552979
|842> C  -0.698567443  -0.115147936   0.141896791
|843> H  -0.907682880  -1.189514756   0.111955359
|844> H  -1.354658304   0.375186773  -0.597127953
|845> H  -0.981828034   0.254712410   1.141561581
|846> *
|847>
|848>
|849> $new_job
|850>
|851> # 4meoh.boyd.etal.dset.1meoh.dset-orca.engrad-mp2.def2tzvp
|852> ! MP2 def2-TZVP EnGrad TightSCF FrozenCore
|853>
|854> %pal
|855>     nprocs 12
|856> end
|857>
|858> %maxcore 8000
|859>
|860> %scf
|861>     ConvForced true
|862> end
|863>
|864> *xyz 0 1
|865> O   0.105793222  -0.604595560   0.324621120
|866> H  -0.320182883  -1.294579704  -0.229054621
|867> C  -0.082531661   0.659929089  -0.299720440
|868> H   0.429657773   1.404824030   0.314803298
|869> H  -1.146445712   0.928791843  -0.353215787
|870> H   0.341010450   0.694828444  -1.314232802
|871> *
|872>
|873>
|874> $new_job
|875>
|876> # 4meoh.boyd.etal.dset.1meoh.dset-orca.engrad-mp2.def2tzvp
|877> ! MP2 def2-TZVP EnGrad TightSCF FrozenCore
|878>
|879> %pal
|880>     nprocs 12
|881> end
|882>
|883> %maxcore 8000
|884>
|885> %scf
|886>     ConvForced true
|887> end
|888>
|889> *xyz 0 1
|890> O  -0.218672576   0.326060241  -0.574136786
|891> H  -0.739164704   1.105072073  -0.267592139
|892> C   0.254800346  -0.380970320   0.570005080
|893> H   0.758990028  -1.281351856   0.210301809
|894> H  -0.561953661  -0.680297217   1.241141002
|895> H   0.977216122   0.220219619   1.138044324
|896> *
|897>
|898>
|899> $new_job
|900>
|901> # 4meoh.boyd.etal.dset.1meoh.dset-orca.engrad-mp2.def2tzvp
|902> ! MP2 def2-TZVP EnGrad TightSCF FrozenCore
|903>
|904> %pal
|905>     nprocs 12
|906> end
|907>
|908> %maxcore 8000
|909>
|910> %scf
|911>     ConvForced true
|912> end
|913>
|914> *xyz 0 1
|915> O   0.058404837   0.009782647   0.691758068
|916> H   1.022323704  -0.049956644   0.891212538
|917> C  -0.117411619  -0.005723567  -0.720096716
|918> H  -1.185560532   0.117412697  -0.918151947
|919> H   0.206164084  -0.961743593  -1.153451998
|920> H   0.429018517   0.807195230  -1.220172736
|921> *
|922>
|923>
|924> $new_job
|925>
|926> # 4meoh.boyd.etal.dset.1meoh.dset-orca.engrad-mp2.def2tzvp
|927> ! MP2 def2-TZVP EnGrad TightSCF FrozenCore
|928>
|929> %pal
|930>     nprocs 12
|931> end
|932>
|933> %maxcore 8000
|934>
|935> %scf
|936>     ConvForced true
|937> end
|938>
|939> *xyz 0 1
|940> O  -0.507625088   0.147382061  -0.445046499
|941> H  -0.327416378  -0.399693719  -1.233960123
|942> C   0.506814541  -0.118164771   0.500087499
|943> H   0.329527809   0.530149333   1.364407857
|944> H   1.518664850   0.099978321   0.118414732
|945> H   0.498263537  -1.161988931   0.856929586
|946> *
|947>
|948>
|949> $new_job
|950>
|951> # 4meoh.boyd.etal.dset.1meoh.dset-orca.engrad-mp2.def2tzvp
|952> ! MP2 def2-TZVP EnGrad TightSCF FrozenCore
|953>
|954> %pal
|955>     nprocs 12
|956> end
|957>
|958> %maxcore 8000
|959>
|960> %scf
|961>     ConvForced true
|962> end
|963>
|964> *xyz 0 1
|965> O   0.103660521  -0.591486768   0.353402608
|966> H  -0.272650806  -1.324859604  -0.196175848
|967> C  -0.082431736   0.651342845  -0.330497227
|968> H   0.164420288   1.443895489   0.378380031
|969> H  -1.125582228   0.779720369  -0.644165402
|970> H   0.570517366   0.729327093  -1.209890885
|971> *
|972>
|973>
|974> $new_job
|975>
|976> # 4meoh.boyd.etal.dset.1meoh.dset-orca.engrad-mp2.def2tzvp
|977> ! MP2 def2-TZVP EnGrad TightSCF FrozenCore
|978>
|979> %pal
|980>     nprocs 12
|981> end
|982>
|983> %maxcore 8000
|984>
|985> %scf
|986>     ConvForced true
|987> end
|988>
|989> *xyz 0 1
|990> O  -0.311539191   0.306484936  -0.540186091
|991> H  -0.845844157   1.043231982  -0.169717099
|992> C   0.350442713  -0.358092503   0.531260685
|993> H   0.898655262  -1.200328096   0.101111303
|994> H  -0.353386057  -0.745172834   1.281746309
|995> H   1.070189246   0.304045060   1.031486769
|996> *
|997>
|998>
|999> $new_job
|1000>
|1001> # 4meoh.boyd.etal.dset.1meoh.dset-orca.engrad-mp2.def2tzvp
|1002> ! MP2 def2-TZVP EnGrad TightSCF FrozenCore
|1003>
|1004> %pal
|1005>     nprocs 12
|1006> end
|1007>
|1008> %maxcore 8000
|1009>
|1010> %scf
|1011>     ConvForced true
|1012> end
|1013>
|1014> *xyz 0 1
|1015> O  -0.035454780  -0.232914129   0.652753069
|1016> H   0.889034992  -0.409698311   0.932011045
|1017> C  -0.018720471   0.249389099  -0.684447892
|1018> H  -1.050715486   0.483186076  -0.959254411
|1019> H   0.360453380  -0.509164597  -1.382923219
|1020> H   0.587133060   1.161324562  -0.796007549
|1021> *
|1022>
|1023>
|1024> $new_job
|1025>
|1026> # 4meoh.boyd.etal.dset.1meoh.dset-orca.engrad-mp2.def2tzvp
|1027> ! MP2 def2-TZVP EnGrad TightSCF FrozenCore
|1028>
|1029> %pal
|1030>     nprocs 12
|1031> end
|1032>
|1033> %maxcore 8000
|1034>
|1035> %scf
|1036>     ConvForced true
|1037> end
|1038>
|1039> *xyz 0 1
|1040> O   0.145602113  -0.670983059   0.098578158
|1041> H  -0.221763296  -1.158875131  -0.675194207
|1042> C  -0.126593671   0.715968902  -0.054979503
|1043> H   0.333735774   1.235076456   0.789683226
|1044> H  -1.206226139   0.917801139  -0.037620534
|1045> H   0.291394858   1.125955034  -0.986609186
|1046> *
|1047>
|1048>
|1049> $new_job
|1050>
|1051> # 4meoh.boyd.etal.dset.1meoh.dset-orca.engrad-mp2.def2tzvp
|1052> ! MP2 def2-TZVP EnGrad TightSCF FrozenCore
|1053>
|1054> %pal
|1055>     nprocs 12
|1056> end
|1057>
|1058> %maxcore 8000
|1059>
|1060> %scf
|1061>     ConvForced true
|1062> end
|1063>
|1064> *xyz 0 1
|1065> O  -0.617269530  -0.312397120   0.078241456
|1066> H  -1.215298776   0.344817502   0.513139753
|1067> C   0.669599197   0.281523290  -0.106677461
|1068> H   1.282788664  -0.435493717  -0.658001880
|1069> H   1.144320049   0.482768530   0.860703526
|1070> H   0.608017827   1.212397283  -0.686703604
|1071> *
|1072>
|1073>
|1074> $new_job
|1075>
|1076> # 4meoh.boyd.etal.dset.1meoh.dset-orca.engrad-mp2.def2tzvp
|1077> ! MP2 def2-TZVP EnGrad TightSCF FrozenCore
|1078>
|1079> %pal
|1080>     nprocs 12
|1081> end
|1082>
|1083> %maxcore 8000
|1084>
|1085> %scf
|1086>     ConvForced true
|1087> end
|1088>
|1089> *xyz 0 1
|1090> O   0.600397116  -0.042309891  -0.343652081
|1091> H   0.352983237  -0.023713152  -1.286954215
|1092> C  -0.598274641   0.041863746   0.406706042
|1093> H  -0.319857158   0.214340544   1.451546349
|1094> H  -1.189669313  -0.887997329   0.364624627
|1095> H  -1.245358202   0.870165591   0.079732156
|1096> *
|1097>
|1098>
|1099> $new_job
|1100>
|1101> # 4meoh.boyd.etal.dset.1meoh.dset-orca.engrad-mp2.def2tzvp
|1102> ! MP2 def2-TZVP EnGrad TightSCF FrozenCore
|1103>
|1104> %pal
|1105>     nprocs 12
|1106> end
|1107>
|1108> %maxcore 8000
|1109>
|1110> %scf
|1111>     ConvForced true
|1112> end
|1113>
|1114> *xyz 0 1
|1115> O  -0.199665067   0.187127719  -0.634569008
|1116> H  -0.901323208   0.861357095  -0.501346124
|1117> C   0.244923239  -0.230747531   0.639056650
|1118> H   1.018281031  -0.991087062   0.487138851
|1119> H  -0.556396899  -0.681718800   1.248354263
|1120> H   0.690488126   0.590504521   1.224253009
|1121> *
|1122>
|1123>
|1124> $new_job
|1125>
|1126> # 4meoh.boyd.etal.dset.1meoh.dset-orca.engrad-mp2.def2tzvp
|1127> ! MP2 def2-TZVP EnGrad TightSCF FrozenCore
|1128>
|1129> %pal
|1130>     nprocs 12
|1131> end
|1132>
|1133> %maxcore 8000
|1134>
|1135> %scf
|1136>     ConvForced true
|1137> end
|1138>
|1139> *xyz 0 1
|1140> O  -0.084553185  -0.545798653   0.420894853
|1141> H  -0.589179320  -1.218330082  -0.106600655
|1142> C   0.117156179   0.598416143  -0.399119752
|1143> H   0.663762333   1.337751229   0.193407678
|1144> H  -0.836036885   1.046724594  -0.715474905
|1145> H   0.707645831   0.367342230  -1.296876659
|1146> *
|1147>
|1148>
|1149> $new_job
|1150>
|1151> # 4meoh.boyd.etal.dset.1meoh.dset-orca.engrad-mp2.def2tzvp
|1152> ! MP2 def2-TZVP EnGrad TightSCF FrozenCore
|1153>
|1154> %pal
|1155>     nprocs 12
|1156> end
|1157>
|1158> %maxcore 8000
|1159>
|1160> %scf
|1161>     ConvForced true
|1162> end
|1163>
|1164> *xyz 0 1
|1165> O  -0.295089319   0.627847122  -0.071311552
|1166> H  -1.177136669   0.578158382   0.357669549
|1167> C   0.356438065  -0.641113567   0.045409927
|1168> H   1.434324301  -0.460944575   0.053932993
|1169> H   0.095740083  -1.292377596  -0.799454987
|1170> H   0.084110179  -1.152018541   0.978780160
|1171> *
|1172>
|1173>
|1174> $new_job
|1175>
|1176> # 4meoh.boyd.etal.dset.1meoh.dset-orca.engrad-mp2.def2tzvp
|1177> ! MP2 def2-TZVP EnGrad TightSCF FrozenCore
|1178>
|1179> %pal
|1180>     nprocs 12
|1181> end
|1182>
|1183> %maxcore 8000
|1184>
|1185> %scf
|1186>     ConvForced true
|1187> end
|1188>
|1189> *xyz 0 1
|1190> O  -0.291785628  -0.229931976  -0.593742264
|1191> H  -0.716015612   0.545276723  -0.993545766
|1192> C   0.326117310   0.191631794   0.633477477
|1193> H   0.692351985  -0.715480610   1.119150523
|1194> H  -0.403397012   0.671894044   1.297091363
|1195> H   1.172961352   0.864863452   0.454079149
|1196> *
|1197>
|1198>                          ****END OF INPUT****
 Total Charge           Charge          ....    0
 Multiplicity           Mult            ....    1
 Number of Electrons    NEL             ....   18
MP2 TOTAL ENERGY:     -115.506634713 Eh
FINAL SINGLE POINT ENERGY      -115.506634713481
MP2 TOTAL ENERGY:     -115.506645254 Eh
FINAL SINGLE POINT ENERGY      -115.506645253750
MP2 TOTAL ENERGY:     -115.506658762 Eh
FINAL SINGLE POINT ENERGY      -115.506658762037
MP2 TOTAL ENERGY:     -115.506666859 Eh
FINAL SINGLE POINT ENERGY      -115.506666858962
MP2 TOTAL ENERGY:     -115.506691924 Eh
FINAL SINGLE POINT ENERGY      -115.506691923734
MP2 TOTAL ENERGY:     -115.506703428 Eh
FINAL SINGLE POINT ENERGY      -115.506703427849
FINAL SINGLE POINT ENERGY      -115.506691661255
FINAL SINGLE POINT ENERGY      -115.506701943560
FINAL SINGLE POINT ENERGY      -115.506717050688
FINAL SINGLE POINT ENERGY      -115.506661738626
FINAL SINGLE POINT ENERGY      -115.506586788718
FINAL SINGLE POINT ENERGY      -115.507157301708
FINAL SINGLE POINT ENERGY      -115.507191518838
FINAL SINGLE POINT ENERGY      -115.506991359866
MP2 TOTAL ENERGY:     -115.506740955 Eh
FINAL SINGLE POINT ENERGY      -115.506740954734
MP2 TOTAL ENERGY:     -115.507205789 Eh
FINAL SINGLE POINT ENERGY      -115.507205788659
MP2 TOTAL ENERGY:     -115.507105567 Eh
FINAL SINGLE POINT ENERGY      -115.507105566939
MP2 TOTAL ENERGY:     -115.506754629 Eh
FINAL SINGLE POINT ENERGY      -115.506754629418
MP2 TOTAL ENERGY:     -115.506220970 Eh
FINAL SINGLE POINT ENERGY      -115.506220969599

CARTESIAN COORDINATES (ANGSTROEM)
---------------------------------
  O     -0.291786   -0.229932   -0.593742
  H     -0.716016    0.545277   -0.993546
  C      0.326117    0.191632    0.633477
  H      0.692352   -0.715481    1.119151
  H     -0.403397    0.671894    1.297091
  H      1.172961    0.864863    0.454079

 Multiplicity           Mult            ....    1
 Number of Electrons    NEL             ....   18
 Basis Dimension        Dim             ....   86

ORBITAL ENERGIES
----------------

  NO   OCC          E(Eh)            E(eV)
   0   2.0000     -20.554458      -559.3152
   1   2.0000     -11.272585      -306.7426
   2   2.0000      -1.346918       -36.6515
   3   2.0000      -0.922571       -25.1044
   4   2.0000      -0.683104       -18.5882
   5   2.0000      -0.617786       -16.8108
   6   2.0000      -0.586967       -15.9722
   7   2.0000      -0.502867       -13.6837
   8   2.0000      -0.451900       -12.2968
   9   0.0000       0.136786         3.7221
  10   0.0000       0.176823         4.8116
  11   0.0000       0.228112         6.2072
  12   0.0000       0.229958         6.2575
  13   0.0000       0.253854         6.9077

MULLIKEN ATOMIC CHARGES
-----------------------
   0 O :   -0.496814
   1 H :    0.318087
   2 C :   -0.175098
   3 H :    0.130288
   4 H :    0.111845
   5 H :    0.111692
Sum of atomic charges:   -0.0000000

LOEWDIN ATOMIC CHARGES
----------------------
   0 O :   -0.108504
   1 H :    0.173909
   2 C :   -0.368161
   3 H :    0.110596
   4 H :    0.096343
   5 H :    0.095816

  Mayer bond orders larger than 0.100000
B(  0-O ,  1-H ) :   0.8497 B(  0-O ,  2-C ) :   0.9226 B(  2-C ,  3-H ) :   0.9389
B(  2-C ,  4-H ) :   0.9401 B(  2-C ,  5-H ) :   0.9367

MP2 TOTAL ENERGY:     -115.507318446 Eh
FINAL SINGLE POINT ENERGY      -115.507318445984

DIPOLE MOMENT
-------------
                                X             Y             Z
Electronic contribution:     -0.70686      -0.62442      -1.48663
Nuclear contribution   :      0.69540       1.27861       1.75182
                        -----------------------------------------
Total Dipole Moment    :     -0.01146       0.65419       0.26520
                        -----------------------------------------
Magnitude (a.u.)       :      0.70600
Magnitude (Debye)      :      1.79450

Rotational constants in cm-1:     4.219719     0.812108     0.784297
Rotational constants in MHz : 126503.997073 24346.398415 23512.639661

                             ****ORCA TERMINATED NORMALLY****
TOTAL RUN TIME: 0 days 0 hours 8 minutes 58 seconds 256 msec
