                         Program Version 4.2.0 -  RELEASE  -
|  1> # 16meoh.pires.deturi.4meoh.dset-orca.engrad-mp2.def2tzvp-1800.to.1819
|  2> ! MP2 def2-TZVP EnGrad TightSCF FrozenCore
|  3>
|  4> %pal
|  5>     nprocs 12
|  6> end
|  7>
|  8> %maxcore 8000
|  9>
| 10> %scf
| 11>     ConvForced true
| 12> end
| 13>
| 14> *xyz 0 1
| 15> O   0.126509440  -3.076363248  -1.256196668
| 16> H   0.340008795  -3.093524223  -0.288451805
| 17> C   1.318820081  -3.418433896  -1.929271824
| 18> H   1.042211472  -3.479571685  -2.984824234
| 19> H   1.717688319  -4.384686928  -1.592897088
| 20> H   2.086886817  -2.645978282  -1.791305838
| 21> O  -3.745530256  -2.181170077  -0.940717811
| 22> H  -3.256375244  -2.983228774  -1.256562685
| 23> C  -4.830023615  -2.030924414  -1.835448747
| 24> H  -5.367049145  -1.144924407  -1.481069017
| 25> H  -5.495188050  -2.901194789  -1.805874980
| 26> H  -4.486329742  -1.867261732  -2.863517219
| 27> O   4.503295638  -1.807526466   1.768213514
| 28> H   4.809734628  -1.780091171   0.825623027
| 29> C   5.683820585  -1.783410235   2.546417170
| 30> H   5.340445492  -1.814134467   3.583904082
| 31> H   6.255091750  -0.864500960   2.373477866
| 32> H   6.318124312  -2.653917265   2.341240921
| 33> O   3.008513329  -4.077296804   2.205052849
| 34> H   3.600952247  -3.293343640   2.081078922
| 35> C   3.413698687  -4.999152804   1.213529583
| 36> H   2.677141565  -5.805820476   1.250508246
| 37> H   4.410233455  -5.399632470   1.432393730
| 38> H   3.419685405  -4.546257033   0.206276496
| 39> *
| 40>
| 41>
| 42> $new_job
| 43>
| 44> # 16meoh.pires.deturi.4meoh.dset-orca.engrad-mp2.def2tzvp-1800.to.1819
| 45> ! MP2 def2-TZVP EnGrad TightSCF FrozenCore
| 46>
| 47> %pal
| 48>     nprocs 12
| 49> end
| 50>
| 51> %maxcore 8000
| 52>
| 53> %scf
| 54>     ConvForced true
| 55> end
| 56>
| 57> *xyz 0 1
| 58> O   0.126509440  -3.076363248  -1.256196668
| 59> H   0.340008795  -3.093524223  -0.288451805
| 60> C   1.318820081  -3.418433896  -1.929271824
| 61> H   1.042211472  -3.479571685  -2.984824234
| 62> H   1.717688319  -4.384686928  -1.592897088
| 63> H   2.086886817  -2.645978282  -1.791305838
| 64> O   3.190012295  -0.294310707  -2.020941016
| 65> H   2.714509117   0.163887168  -1.279560508
| 66> C   3.773621856   0.754487110  -2.771105983
| 67> H   4.169048413   0.279603731  -3.672411353
| 68> H   4.589570778   1.231807210  -2.215189996
| 69> H   3.027632133   1.516876814  -3.048043373
| 70> O   5.209159061  -1.760286019  -0.887111380
| 71> H   4.488190304  -1.244416518  -1.334663238
| 72> C   5.098612890  -3.068562606  -1.410992649
| 73> H   5.998675499  -3.590032498  -1.074395254
| 74> H   5.058726259  -3.069197366  -2.505687480
| 75> H   4.207235260  -3.583539786  -1.010262625
| 76> O   4.503295638  -1.807526466   1.768213514
| 77> H   4.809734628  -1.780091171   0.825623027
| 78> C   5.683820585  -1.783410235   2.546417170
| 79> H   5.340445492  -1.814134467   3.583904082
| 80> H   6.255091750  -0.864500960   2.373477866
| 81> H   6.318124312  -2.653917265   2.341240921
| 82> *
| 83>
| 84>
| 85> $new_job
| 86>
| 87> # 16meoh.pires.deturi.4meoh.dset-orca.engrad-mp2.def2tzvp-1800.to.1819
| 88> ! MP2 def2-TZVP EnGrad TightSCF FrozenCore
| 89>
| 90> %pal
| 91>     nprocs 12
| 92> end
| 93>
| 94> %maxcore 8000
| 95>
| 96> %scf
| 97>     ConvForced true
| 98> end
| 99>
|100> *xyz 0 1
|101> O   0.126509440  -3.076363248  -1.256196668
|102> H   0.340008795  -3.093524223  -0.288451805
|103> C   1.318820081  -3.418433896  -1.929271824
|104> H   1.042211472  -3.479571685  -2.984824234
|105> H   1.717688319  -4.384686928  -1.592897088
|106> H   2.086886817  -2.645978282  -1.791305838
|107> O   3.190012295  -0.294310707  -2.020941016
|108> H   2.714509117   0.163887168  -1.279560508
|109> C   3.773621856   0.754487110  -2.771105983
|110> H   4.169048413   0.279603731  -3.672411353
|111> H   4.589570778   1.231807210  -2.215189996
|112> H   3.027632133   1.516876814  -3.048043373
|113> O   5.209159061  -1.760286019  -0.887111380
|114> H   4.488190304  -1.244416518  -1.334663238
|115> C   5.098612890  -3.068562606  -1.410992649
|116> H   5.998675499  -3.590032498  -1.074395254
|117> H   5.058726259  -3.069197366  -2.505687480
|118> H   4.207235260  -3.583539786  -1.010262625
|119> O   3.008513329  -4.077296804   2.205052849
|120> H   3.600952247  -3.293343640   2.081078922
|121> C   3.413698687  -4.999152804   1.213529583
|122> H   2.677141565  -5.805820476   1.250508246
|123> H   4.410233455  -5.399632470   1.432393730
|124> H   3.419685405  -4.546257033   0.206276496
|125> *
|126>
|127>
|128> $new_job
|129>
|130> # 16meoh.pires.deturi.4meoh.dset-orca.engrad-mp2.def2tzvp-1800.to.1819
|131> ! MP2 def2-TZVP EnGrad TightSCF FrozenCore
|132>
|133> %pal
|134>     nprocs 12
|135> end
|136>
|137> %maxcore 8000
|138>
|139> %scf
|140>     ConvForced true
|141> end
|142>
|143> *xyz 0 1
|144> O   0.126509440  -3.076363248  -1.256196668
|145> H   0.340008795  -3.093524223  -0.288451805
|146> C   1.318820081  -3.418433896  -1.929271824
|147> H   1.042211472  -3.479571685  -2.984824234
|148> H   1.717688319  -4.384686928  -1.592897088
|149> H   2.086886817  -2.645978282  -1.791305838
|150> O   3.190012295  -0.294310707  -2.020941016
|151> H   2.714509117   0.163887168  -1.279560508
|152> C   3.773621856   0.754487110  -2.771105983
|153> H   4.169048413   0.279603731  -3.672411353
|154> H   4.589570778   1.231807210  -2.215189996
|155> H   3.027632133   1.516876814  -3.048043373
|156> O   4.503295638  -1.807526466   1.768213514
|157> H   4.809734628  -1.780091171   0.825623027
|158> C   5.683820585  -1.783410235   2.546417170
|159> H   5.340445492  -1.814134467   3.583904082
|160> H   6.255091750  -0.864500960   2.373477866
|161> H   6.318124312  -2.653917265   2.341240921
|162> O   3.008513329  -4.077296804   2.205052849
|163> H   3.600952247  -3.293343640   2.081078922
|164> C   3.413698687  -4.999152804   1.213529583
|165> H   2.677141565  -5.805820476   1.250508246
|166> H   4.410233455  -5.399632470   1.432393730
|167> H   3.419685405  -4.546257033   0.206276496
|168> *
|169>
|170>
|171> $new_job
|172>
|173> # 16meoh.pires.deturi.4meoh.dset-orca.engrad-mp2.def2tzvp-1800.to.1819
|174> ! MP2 def2-TZVP EnGrad TightSCF FrozenCore
|175>
|176> %pal
|177>     nprocs 12
|178> end
|179>
|180> %maxcore 8000
|181>
|182> %scf
|183>     ConvForced true
|184> end
|185>
|186> *xyz 0 1
|187> O   0.126509440  -3.076363248  -1.256196668
|188> H   0.340008795  -3.093524223  -0.288451805
|189> C   1.318820081  -3.418433896  -1.929271824
|190> H   1.042211472  -3.479571685  -2.984824234
|191> H   1.717688319  -4.384686928  -1.592897088
|192> H   2.086886817  -2.645978282  -1.791305838
|193> O   5.209159061  -1.760286019  -0.887111380
|194> H   4.488190304  -1.244416518  -1.334663238
|195> C   5.098612890  -3.068562606  -1.410992649
|196> H   5.998675499  -3.590032498  -1.074395254
|197> H   5.058726259  -3.069197366  -2.505687480
|198> H   4.207235260  -3.583539786  -1.010262625
|199> O   4.503295638  -1.807526466   1.768213514
|200> H   4.809734628  -1.780091171   0.825623027
|201> C   5.683820585  -1.783410235   2.546417170
|202> H   5.340445492  -1.814134467   3.583904082
|203> H   6.255091750  -0.864500960   2.373477866
|204> H   6.318124312  -2.653917265   2.341240921
|205> O   3.008513329  -4.077296804   2.205052849
|206> H   3.600952247  -3.293343640   2.081078922
|207> C   3.413698687  -4.999152804   1.213529583
|208> H   2.677141565  -5.805820476   1.250508246
|209> H   4.410233455  -5.399632470   1.432393730
|210> H   3.419685405  -4.546257033   0.206276496
|211> *
|212>
|213>
|214> $new_job
|215>
|216> # 16meoh.pires.deturi.4meoh.dset-orca.engrad-mp2.def2tzvp-1800.to.1819
|217> ! MP2 def2-TZVP EnGrad TightSCF FrozenCore
|218>
|219> %pal
|220>     nprocs 12
|221> end
|222>
|223> %maxcore 8000
|224>
|225> %scf
|226>     ConvForced true
|227> end
|228>
|229> *xyz 0 1
|230> O  -2.240549001  -4.340367635  -1.757085838
|231> H  -1.330244334  -3.974402199  -1.625908969
|232> C  -2.368613939  -5.344577342  -0.768563191
|233> H  -3.385879733  -5.728552846  -0.882562074
|234> H  -2.237606518  -4.939664632   0.242205144
|235> H  -1.650692371  -6.156309817  -0.932735905
|236> O  -3.745530256  -2.181170077  -0.940717811
|237> H  -3.256375244  -2.983228774  -1.256562685
|238> C  -4.830023615  -2.030924414  -1.835448747
|239> H  -5.367049145  -1.144924407  -1.481069017
|240> H  -5.495188050  -2.901194789  -1.805874980
|241> H  -4.486329742  -1.867261732  -2.863517219
|242> O   3.190012295  -0.294310707  -2.020941016
|243> H   2.714509117   0.163887168  -1.279560508
|244> C   3.773621856   0.754487110  -2.771105983
|245> H   4.169048413   0.279603731  -3.672411353
|246> H   4.589570778   1.231807210  -2.215189996
|247> H   3.027632133   1.516876814  -3.048043373
|248> O   5.209159061  -1.760286019  -0.887111380
|249> H   4.488190304  -1.244416518  -1.334663238
|250> C   5.098612890  -3.068562606  -1.410992649
|251> H   5.998675499  -3.590032498  -1.074395254
|252> H   5.058726259  -3.069197366  -2.505687480
|253> H   4.207235260  -3.583539786  -1.010262625
|254> *
|255>
|256>
|257> $new_job
|258>
|259> # 16meoh.pires.deturi.4meoh.dset-orca.engrad-mp2.def2tzvp-1800.to.1819
|260> ! MP2 def2-TZVP EnGrad TightSCF FrozenCore
|261>
|262> %pal
|263>     nprocs 12
|264> end
|265>
|266> %maxcore 8000
|267>
|268> %scf
|269>     ConvForced true
|270> end
|271>
|272> *xyz 0 1
|273> O  -2.240549001  -4.340367635  -1.757085838
|274> H  -1.330244334  -3.974402199  -1.625908969
|275> C  -2.368613939  -5.344577342  -0.768563191
|276> H  -3.385879733  -5.728552846  -0.882562074
|277> H  -2.237606518  -4.939664632   0.242205144
|278> H  -1.650692371  -6.156309817  -0.932735905
|279> O  -3.745530256  -2.181170077  -0.940717811
|280> H  -3.256375244  -2.983228774  -1.256562685
|281> C  -4.830023615  -2.030924414  -1.835448747
|282> H  -5.367049145  -1.144924407  -1.481069017
|283> H  -5.495188050  -2.901194789  -1.805874980
|284> H  -4.486329742  -1.867261732  -2.863517219
|285> O   3.190012295  -0.294310707  -2.020941016
|286> H   2.714509117   0.163887168  -1.279560508
|287> C   3.773621856   0.754487110  -2.771105983
|288> H   4.169048413   0.279603731  -3.672411353
|289> H   4.589570778   1.231807210  -2.215189996
|290> H   3.027632133   1.516876814  -3.048043373
|291> O   4.503295638  -1.807526466   1.768213514
|292> H   4.809734628  -1.780091171   0.825623027
|293> C   5.683820585  -1.783410235   2.546417170
|294> H   5.340445492  -1.814134467   3.583904082
|295> H   6.255091750  -0.864500960   2.373477866
|296> H   6.318124312  -2.653917265   2.341240921
|297> *
|298>
|299>
|300> $new_job
|301>
|302> # 16meoh.pires.deturi.4meoh.dset-orca.engrad-mp2.def2tzvp-1800.to.1819
|303> ! MP2 def2-TZVP EnGrad TightSCF FrozenCore
|304>
|305> %pal
|306>     nprocs 12
|307> end
|308>
|309> %maxcore 8000
|310>
|311> %scf
|312>     ConvForced true
|313> end
|314>
|315> *xyz 0 1
|316> O  -2.240549001  -4.340367635  -1.757085838
|317> H  -1.330244334  -3.974402199  -1.625908969
|318> C  -2.368613939  -5.344577342  -0.768563191
|319> H  -3.385879733  -5.728552846  -0.882562074
|320> H  -2.237606518  -4.939664632   0.242205144
|321> H  -1.650692371  -6.156309817  -0.932735905
|322> O  -3.745530256  -2.181170077  -0.940717811
|323> H  -3.256375244  -2.983228774  -1.256562685
|324> C  -4.830023615  -2.030924414  -1.835448747
|325> H  -5.367049145  -1.144924407  -1.481069017
|326> H  -5.495188050  -2.901194789  -1.805874980
|327> H  -4.486329742  -1.867261732  -2.863517219
|328> O   3.190012295  -0.294310707  -2.020941016
|329> H   2.714509117   0.163887168  -1.279560508
|330> C   3.773621856   0.754487110  -2.771105983
|331> H   4.169048413   0.279603731  -3.672411353
|332> H   4.589570778   1.231807210  -2.215189996
|333> H   3.027632133   1.516876814  -3.048043373
|334> O   3.008513329  -4.077296804   2.205052849
|335> H   3.600952247  -3.293343640   2.081078922
|336> C   3.413698687  -4.999152804   1.213529583
|337> H   2.677141565  -5.805820476   1.250508246
|338> H   4.410233455  -5.399632470   1.432393730
|339> H   3.419685405  -4.546257033   0.206276496
|340> *
|341>
|342>
|343> $new_job
|344>
|345> # 16meoh.pires.deturi.4meoh.dset-orca.engrad-mp2.def2tzvp-1800.to.1819
|346> ! MP2 def2-TZVP EnGrad TightSCF FrozenCore
|347>
|348> %pal
|349>     nprocs 12
|350> end
|351>
|352> %maxcore 8000
|353>
|354> %scf
|355>     ConvForced true
|356> end
|357>
|358> *xyz 0 1
|359> O  -2.240549001  -4.340367635  -1.757085838
|360> H  -1.330244334  -3.974402199  -1.625908969
|361> C  -2.368613939  -5.344577342  -0.768563191
|362> H  -3.385879733  -5.728552846  -0.882562074
|363> H  -2.237606518  -4.939664632   0.242205144
|364> H  -1.650692371  -6.156309817  -0.932735905
|365> O  -3.745530256  -2.181170077  -0.940717811
|366> H  -3.256375244  -2.983228774  -1.256562685
|367> C  -4.830023615  -2.030924414  -1.835448747
|368> H  -5.367049145  -1.144924407  -1.481069017
|369> H  -5.495188050  -2.901194789  -1.805874980
|370> H  -4.486329742  -1.867261732  -2.863517219
|371> O   5.209159061  -1.760286019  -0.887111380
|372> H   4.488190304  -1.244416518  -1.334663238
|373> C   5.098612890  -3.068562606  -1.410992649
|374> H   5.998675499  -3.590032498  -1.074395254
|375> H   5.058726259  -3.069197366  -2.505687480
|376> H   4.207235260  -3.583539786  -1.010262625
|377> O   4.503295638  -1.807526466   1.768213514
|378> H   4.809734628  -1.780091171   0.825623027
|379> C   5.683820585  -1.783410235   2.546417170
|380> H   5.340445492  -1.814134467   3.583904082
|381> H   6.255091750  -0.864500960   2.373477866
|382> H   6.318124312  -2.653917265   2.341240921
|383> *
|384>
|385>
|386> $new_job
|387>
|388> # 16meoh.pires.deturi.4meoh.dset-orca.engrad-mp2.def2tzvp-1800.to.1819
|389> ! MP2 def2-TZVP EnGrad TightSCF FrozenCore
|390>
|391> %pal
|392>     nprocs 12
|393> end
|394>
|395> %maxcore 8000
|396>
|397> %scf
|398>     ConvForced true
|399> end
|400>
|459> C   5.683820585  -1.783410235   2.546417170
|460> H   5.340445492  -1.814134467   3.583904082
|461> H   6.255091750  -0.864500960   2.373477866
|462> H   6.318124312  -2.653917265   2.341240921
|463> O   3.008513329  -4.077296804   2.205052849
|464> H   3.600952247  -3.293343640   2.081078922
|465> C   3.413698687  -4.999152804   1.213529583
|466> H   2.677141565  -5.805820476   1.250508246
|467> H   4.410233455  -5.399632470   1.432393730
|468> H   3.419685405  -4.546257033   0.206276496
|469> *
|470>
|471>
|472> $new_job
|473>
|474> # 16meoh.pires.deturi.4meoh.dset-orca.engrad-mp2.def2tzvp-1800.to.1819
|475> ! MP2 def2-TZVP EnGrad TightSCF FrozenCore
|476>
|477> %pal
|478>     nprocs 12
|479> end
|480>
|481> %maxcore 8000
|482>
|483> %scf
|484>     ConvForced true
|485> end
|486>
|487> *xyz 0 1
|488> O  -2.240549001  -4.340367635  -1.757085838
|489> H  -1.330244334  -3.974402199  -1.625908969
|490> C  -2.368613939  -5.344577342  -0.768563191
|491> H  -3.385879733  -5.728552846  -0.882562074
|492> H  -2.237606518  -4.939664632   0.242205144
|493> H  -1.650692371  -6.156309817  -0.932735905
|494> O   3.190012295  -0.294310707  -2.020941016
|495> H   2.714509117   0.163887168  -1.279560508
|496> C   3.773621856   0.754487110  -2.771105983
|497> H   4.169048413   0.279603731  -3.672411353
|498> H   4.589570778   1.231807210  -2.215189996
|499> H   3.027632133   1.516876814  -3.048043373
|500> O   5.209159061  -1.760286019  -0.887111380
|501> H   4.488190304  -1.244416518  -1.334663238
|502> C   5.098612890  -3.068562606  -1.410992649
|503> H   5.998675499  -3.590032498  -1.074395254
|504> H   5.058726259  -3.069197366  -2.505687480
|505> H   4.207235260  -3.583539786  -1.010262625
|506> O   4.503295638  -1.807526466   1.768213514
|507> H   4.809734628  -1.780091171   0.825623027
|508> C   5.683820585  -1.783410235   2.546417170
|509> H   5.340445492  -1.814134467   3.583904082
|510> H   6.255091750  -0.864500960   2.373477866
|511> H   6.318124312  -2.653917265   2.341240921
|512> *
|513>
|514>
|515> $new_job
|516>
|517> # 16meoh.pires.deturi.4meoh.dset-orca.engrad-mp2.def2tzvp-1800.to.1819
|518> ! MP2 def2-TZVP EnGrad TightSCF FrozenCore
|519>
|520> %pal
|521>     nprocs 12
|522> end
|523>
|524> %maxcore 8000
|525>
|526> %scf
|527>     ConvForced true
|528> end
|529>
|530> *xyz 0 1
|531> O  -2.240549001  -4.340367635  -1.757085838
|532> H  -1.330244334  -3.974402199  -1.625908969
|533> C  -2.368613939  -5.344577342  -0.768563191
|534> H  -3.385879733  -5.728552846  -0.882562074
|535> H  -2.237606518  -4.939664632   0.242205144
|536> H  -1.650692371  -6.156309817  -0.932735905
|537> O   3.190012295  -0.294310707  -2.020941016
|538> H   2.714509117   0.163887168  -1.279560508
|539> C   3.773621856   0.754487110  -2.771105983
|540> H   4.169048413   0.279603731  -3.672411353
|541> H   4.589570778   1.231807210  -2.215189996
|542> H   3.027632133   1.516876814  -3.048043373
|543> O   5.209159061  -1.760286019  -0.887111380
|544> H   4.488190304  -1.244416518  -1.334663238
|545> C   5.098612890  -3.068562606  -1.410992649
|546> H   5.998675499  -3.590032498  -1.074395254
|547> H   5.058726259  -3.069197366  -2.505687480
|548> H   4.207235260  -3.583539786  -1.010262625
|549> O   3.008513329  -4.077296804   2.205052849
|550> H   3.600952247  -3.293343640   2.081078922
|551> C   3.413698687  -4.999152804   1.213529583
|552> H   2.677141565  -5.805820476   1.250508246
|553> H   4.410233455  -5.399632470   1.432393730
|554> H   3.419685405  -4.546257033   0.206276496
|555> *
|556>
|557>
|558> $new_job
|559>
|560> # 16meoh.pires.deturi.4meoh.dset-orca.engrad-mp2.def2tzvp-1800.to.1819
|561> ! MP2 def2-TZVP EnGrad TightSCF FrozenCore
|562>
|563> %pal
|564>     nprocs 12
|565> end
|566>
|567> %maxcore 8000
|568>
|569> %scf
|570>     ConvForced true
|571> end
|572>
|573> *xyz 0 1
|574> O  -2.240549001  -4.340367635  -1.757085838
|575> H  -1.330244334  -3.974402199  -1.625908969
|576> C  -2.368613939  -5.344577342  -0.768563191
|577> H  -3.385879733  -5.728552846  -0.882562074
|578> H  -2.237606518  -4.939664632   0.242205144
|579> H  -1.650692371  -6.156309817  -0.932735905
|580> O   3.190012295  -0.294310707  -2.020941016
|581> H   2.714509117   0.163887168  -1.279560508
|582> C   3.773621856   0.754487110  -2.771105983
|583> H   4.169048413   0.279603731  -3.672411353
|584> H   4.589570778   1.231807210  -2.215189996
|585> H   3.027632133   1.516876814  -3.048043373
|586> O   4.503295638  -1.807526466   1.768213514
|587> H   4.809734628  -1.780091171   0.825623027
|588> C   5.683820585  -1.783410235   2.546417170
|589> H   5.340445492  -1.814134467   3.583904082
|590> H   6.255091750  -0.864500960   2.373477866
|591> H   6.318124312  -2.653917265   2.341240921
|592> O   3.008513329  -4.077296804   2.205052849
|593> H   3.600952247  -3.293343640   2.081078922
|594> C   3.413698687  -4.999152804   1.213529583
|595> H   2.677141565  -5.805820476   1.250508246
|596> H   4.410233455  -5.399632470   1.432393730
|597> H   3.419685405  -4.546257033   0.206276496
|598> *
|599>
|600>
|601> $new_job
|602>
|603> # 16meoh.pires.deturi.4meoh.dset-orca.engrad-mp2.def2tzvp-1800.to.1819
|604> ! MP2 def2-TZVP EnGrad TightSCF FrozenCore
|605>
|606> %pal
|607>     nprocs 12
|608> end
|609>
|610> %maxcore 8000
|611>
|612> %scf
|613>     ConvForced true
|614> end
|615>
|616> *xyz 0 1
|617> O  -2.240549001  -4.340367635  -1.757085838
|618> H  -1.330244334  -3.974402199  -1.625908969
|619> C  -2.368613939  -5.344577342  -0.768563191
|620> H  -3.385879733  -5.728552846  -0.882562074
|621> H  -2.237606518  -4.939664632   0.242205144
|622> H  -1.650692371  -6.156309817  -0.932735905
|623> O   5.209159061  -1.760286019  -0.887111380
|624> H   4.488190304  -1.244416518  -1.334663238
|625> C   5.098612890  -3.068562606  -1.410992649
|626> H   5.998675499  -3.590032498  -1.074395254
|627> H   5.058726259  -3.069197366  -2.505687480
|628> H   4.207235260  -3.583539786  -1.010262625
|629> O   4.503295638  -1.807526466   1.768213514
|630> H   4.809734628  -1.780091171   0.825623027
|631> C   5.683820585  -1.783410235   2.546417170
|632> H   5.340445492  -1.814134467   3.583904082
|633> H   6.255091750  -0.864500960   2.373477866
|634> H   6.318124312  -2.653917265   2.341240921
|635> O   3.008513329  -4.077296804   2.205052849
|636> H   3.600952247  -3.293343640   2.081078922
|637> C   3.413698687  -4.999152804   1.213529583
|638> H   2.677141565  -5.805820476   1.250508246
|639> H   4.410233455  -5.399632470   1.432393730
|640> H   3.419685405  -4.546257033   0.206276496
|641> *
|642>
|643>
|644> $new_job
|645>
|646> # 16meoh.pires.deturi.4meoh.dset-orca.engrad-mp2.def2tzvp-1800.to.1819
|647> ! MP2 def2-TZVP EnGrad TightSCF FrozenCore
|648>
|649> %pal
|650>     nprocs 12
|651> end
|652>
|653> %maxcore 8000
|654>
|655> %scf
|656>     ConvForced true
|657> end
|658>
|659> *xyz 0 1
|660> O  -3.745530256  -2.181170077  -0.940717811
|661> H  -3.256375244  -2.983228774  -1.256562685
|662> C  -4.830023615  -2.030924414  -1.835448747
|663> H  -5.367049145  -1.144924407  -1.481069017
|664> H  -5.495188050  -2.901194789  -1.805874980
|665> H  -4.486329742  -1.867261732  -2.863517219
|666> O   3.190012295  -0.294310707  -2.020941016
|667> H   2.714509117   0.163887168  -1.279560508
|668> C   3.773621856   0.754487110  -2.771105983
|669> H   4.169048413   0.279603731  -3.672411353
|670> H   4.589570778   1.231807210  -2.215189996
|671> H   3.027632133   1.516876814  -3.048043373
|672> O   5.209159061  -1.760286019  -0.887111380
|673> H   4.488190304  -1.244416518  -1.334663238
|674> C   5.098612890  -3.068562606  -1.410992649
|675> H   5.998675499  -3.590032498  -1.074395254
|676> H   5.058726259  -3.069197366  -2.505687480
|677> H   4.207235260  -3.583539786  -1.010262625
|678> O   4.503295638  -1.807526466   1.768213514
|679> H   4.809734628  -1.780091171   0.825623027
|680> C   5.683820585  -1.783410235   2.546417170
|681> H   5.340445492  -1.814134467   3.583904082
|682> H   6.255091750  -0.864500960   2.373477866
|683> H   6.318124312  -2.653917265   2.341240921
|684> *
|685>
|686>
|687> $new_job
|688>
|689> # 16meoh.pires.deturi.4meoh.dset-orca.engrad-mp2.def2tzvp-1800.to.1819
|690> ! MP2 def2-TZVP EnGrad TightSCF FrozenCore
|691>
|692> %pal
|693>     nprocs 12
|694> end
|695>
|696> %maxcore 8000
|697>
|698> %scf
|699>     ConvForced true
|700> end
|701>
|702> *xyz 0 1
|703> O  -3.745530256  -2.181170077  -0.940717811
|704> H  -3.256375244  -2.983228774  -1.256562685
|705> C  -4.830023615  -2.030924414  -1.835448747
|706> H  -5.367049145  -1.144924407  -1.481069017
|707> H  -5.495188050  -2.901194789  -1.805874980
|708> H  -4.486329742  -1.867261732  -2.863517219
|709> O   3.190012295  -0.294310707  -2.020941016
|710> H   2.714509117   0.163887168  -1.279560508
|711> C   3.773621856   0.754487110  -2.771105983
|712> H   4.169048413   0.279603731  -3.672411353
|713> H   4.589570778   1.231807210  -2.215189996
|714> H   3.027632133   1.516876814  -3.048043373
|715> O   5.209159061  -1.760286019  -0.887111380
|716> H   4.488190304  -1.244416518  -1.334663238
|717> C   5.098612890  -3.068562606  -1.410992649
|718> H   5.998675499  -3.590032498  -1.074395254
|719> H   5.058726259  -3.069197366  -2.505687480
|720> H   4.207235260  -3.583539786  -1.010262625
|721> O   3.008513329  -4.077296804   2.205052849
|722> H   3.600952247  -3.293343640   2.081078922
|723> C   3.413698687  -4.999152804   1.213529583
|724> H   2.677141565  -5.805820476   1.250508246
|725> H   4.410233455  -5.399632470   1.432393730
|726> H   3.419685405  -4.546257033   0.206276496
|727> *
|728>
|729>
|730> $new_job
|731>
|732> # 16meoh.pires.deturi.4meoh.dset-orca.engrad-mp2.def2tzvp-1800.to.1819
|733> ! MP2 def2-TZVP EnGrad TightSCF FrozenCore
|734>
|735> %pal
|736>     nprocs 12
|737> end
|738>
|739> %maxcore 8000
|740>
|741> %scf
|742>     ConvForced true
|743> end
|744>
|745> *xyz 0 1
|746> O  -3.745530256  -2.181170077  -0.940717811
|747> H  -3.256375244  -2.983228774  -1.256562685
|748> C  -4.830023615  -2.030924414  -1.835448747
|749> H  -5.367049145  -1.144924407  -1.481069017
|750> H  -5.495188050  -2.901194789  -1.805874980
|751> H  -4.486329742  -1.867261732  -2.863517219
|752> O   3.190012295  -0.294310707  -2.020941016
|753> H   2.714509117   0.163887168  -1.279560508
|754> C   3.773621856   0.754487110  -2.771105983
|755> H   4.169048413   0.279603731  -3.672411353
|756> H   4.589570778   1.231807210  -2.215189996
|757> H   3.027632133   1.516876814  -3.048043373
|758> O   4.503295638  -1.807526466   1.768213514
|759> H   4.809734628  -1.780091171   0.825623027
|760> C   5.683820585  -1.783410235   2.546417170
|761> H   5.340445492  -1.814134467   3.583904082
|762> H   6.255091750  -0.864500960   2.373477866
|763> H   6.318124312  -2.653917265   2.341240921
|764> O   3.008513329  -4.077296804   2.205052849
|765> H   3.600952247  -3.293343640   2.081078922
|766> C   3.413698687  -4.999152804   1.213529583
|767> H   2.677141565  -5.805820476   1.250508246
|768> H   4.410233455  -5.399632470   1.432393730
|769> H   3.419685405  -4.546257033   0.206276496
|770> *
|771>
|772>
|773> $new_job
|774>
|775> # 16meoh.pires.deturi.4meoh.dset-orca.engrad-mp2.def2tzvp-1800.to.1819
|776> ! MP2 def2-TZVP EnGrad TightSCF FrozenCore
|777>
|778> %pal
|779>     nprocs 12
|780> end
|781>
|782> %maxcore 8000
|783>
|784> %scf
|785>     ConvForced true
|786> end
|787>
|788> *xyz 0 1
|789> O  -3.745530256  -2.181170077  -0.940717811
|790> H  -3.256375244  -2.983228774  -1.256562685
|791> C  -4.830023615  -2.030924414  -1.835448747
|792> H  -5.367049145  -1.144924407  -1.481069017
|793> H  -5.495188050  -2.901194789  -1.805874980
|794> H  -4.486329742  -1.867261732  -2.863517219
|795> O   5.209159061  -1.760286019  -0.887111380
|796> H   4.488190304  -1.244416518  -1.334663238
|797> C   5.098612890  -3.068562606  -1.410992649
|798> H   5.998675499  -3.590032498  -1.074395254
|799> H   5.058726259  -3.069197366  -2.505687480
|800> H   4.207235260  -3.583539786  -1.010262625
|801> O   4.503295638  -1.807526466   1.768213514
|802> H   4.809734628  -1.780091171   0.825623027
|803> C   5.683820585  -1.783410235   2.546417170
|804> H   5.340445492  -1.814134467   3.583904082
|805> H   6.255091750  -0.864500960   2.373477866
|806> H   6.318124312  -2.653917265   2.341240921
|807> O   3.008513329  -4.077296804   2.205052849
|808> H   3.600952247  -3.293343640   2.081078922
|809> C   3.413698687  -4.999152804   1.213529583
|810> H   2.677141565  -5.805820476   1.250508246
|811> H   4.410233455  -5.399632470   1.432393730
|812> H   3.419685405  -4.546257033   0.206276496
|813> *
|814>
|815>
|816> $new_job
|817>
|818> # 16meoh.pires.deturi.4meoh.dset-orca.engrad-mp2.def2tzvp-1800.to.1819
|819> ! MP2 def2-TZVP EnGrad TightSCF FrozenCore
|820>
|821> %pal
|822>     nprocs 12
|823> end
|824>
|825> %maxcore 8000
|826>
|827> %scf
|828>     ConvForced true
|829> end
|830>
|831> *xyz 0 1
|832> O   3.190012295  -0.294310707  -2.020941016
|833> H   2.714509117   0.163887168  -1.279560508
|834> C   3.773621856   0.754487110  -2.771105983
|835> H   4.169048413   0.279603731  -3.672411353
|836> H   4.589570778   1.231807210  -2.215189996
|837> H   3.027632133   1.516876814  -3.048043373
|838> O   5.209159061  -1.760286019  -0.887111380
|839> H   4.488190304  -1.244416518  -1.334663238
|840> C   5.098612890  -3.068562606  -1.410992649
|841> H   5.998675499  -3.590032498  -1.074395254
|842> H   5.058726259  -3.069197366  -2.505687480
|843> H   4.207235260  -3.583539786  -1.010262625
|844> O   4.503295638  -1.807526466   1.768213514
|845> H   4.809734628  -1.780091171   0.825623027
|846> C   5.683820585  -1.783410235   2.546417170
|847> H   5.340445492  -1.814134467   3.583904082
|848> H   6.255091750  -0.864500960   2.373477866
|849> H   6.318124312  -2.653917265   2.341240921
|850> O   3.008513329  -4.077296804   2.205052849
|851> H   3.600952247  -3.293343640   2.081078922
|852> C   3.413698687  -4.999152804   1.213529583
|853> H   2.677141565  -5.805820476   1.250508246
|854> H   4.410233455  -5.399632470   1.432393730
|855> H   3.419685405  -4.546257033   0.206276496
|856> *
|857>
|858>                          ****END OF INPUT****
 Total Charge           Charge          ....    0
 Multiplicity           Mult            ....    1
 Number of Electrons    NEL             ....   72
MP2 TOTAL ENERGY:     -462.038414073 Eh
FINAL SINGLE POINT ENERGY      -462.038414072628
MP2 TOTAL ENERGY:     -462.051412276 Eh
FINAL SINGLE POINT ENERGY      -462.051412275538
MP2 TOTAL ENERGY:     -462.038042724 Eh
FINAL SINGLE POINT ENERGY      -462.038042724329
MP2 TOTAL ENERGY:     -462.040652326 Eh
FINAL SINGLE POINT ENERGY      -462.040652326481
MP2 TOTAL ENERGY:     -462.047457630 Eh
FINAL SINGLE POINT ENERGY      -462.047457630352
MP2 TOTAL ENERGY:     -462.045542640 Eh
FINAL SINGLE POINT ENERGY      -462.045542639608
FINAL SINGLE POINT ENERGY      -462.038199919705
FINAL SINGLE POINT ENERGY      -462.036667290697
FINAL SINGLE POINT ENERGY      -462.045133695592
FINAL SINGLE POINT ENERGY      -462.033815913034
FINAL SINGLE POINT ENERGY      -462.044732255024
FINAL SINGLE POINT ENERGY      -462.049401867628
FINAL SINGLE POINT ENERGY      -462.034951271392
FINAL SINGLE POINT ENERGY      -462.037524265011
MP2 TOTAL ENERGY:     -462.044606868 Eh
FINAL SINGLE POINT ENERGY      -462.044606868432
MP2 TOTAL ENERGY:     -462.049091394 Eh
FINAL SINGLE POINT ENERGY      -462.049091393991
MP2 TOTAL ENERGY:     -462.034583852 Eh
FINAL SINGLE POINT ENERGY      -462.034583851751
MP2 TOTAL ENERGY:     -462.036712250 Eh
FINAL SINGLE POINT ENERGY      -462.036712250005
MP2 TOTAL ENERGY:     -462.043908933 Eh
FINAL SINGLE POINT ENERGY      -462.043908933206

CARTESIAN COORDINATES (ANGSTROEM)
---------------------------------
  O      3.190012   -0.294311   -2.020941
  H      2.714509    0.163887   -1.279561
  C      3.773622    0.754487   -2.771106
  H      4.169048    0.279604   -3.672411
  H      4.589571    1.231807   -2.215190
  H      3.027632    1.516877   -3.048043
  O      5.209159   -1.760286   -0.887111
  H      4.488190   -1.244417   -1.334663
  C      5.098613   -3.068563   -1.410993
  H      5.998675   -3.590032   -1.074395
  H      5.058726   -3.069197   -2.505687
  H      4.207235   -3.583540   -1.010263
  O      4.503296   -1.807526    1.768214
  H      4.809735   -1.780091    0.825623
  C      5.683821   -1.783410    2.546417
  H      5.340445   -1.814134    3.583904
  H      6.255092   -0.864501    2.373478
  H      6.318124   -2.653917    2.341241
  O      3.008513   -4.077297    2.205053
  H      3.600952   -3.293344    2.081079
  C      3.413699   -4.999153    1.213530
  H      2.677142   -5.805820    1.250508
  H      4.410233   -5.399632    1.432394
  H      3.419685   -4.546257    0.206276

 Multiplicity           Mult            ....    1
 Number of Electrons    NEL             ....   72
 Basis Dimension        Dim             ....  344

ORBITAL ENERGIES
----------------

  NO   OCC          E(Eh)            E(eV)
   0   2.0000     -20.600437      -560.5664
   1   2.0000     -20.560082      -559.4683
   2   2.0000     -20.543840      -559.0263
   3   2.0000     -20.509027      -558.0790
   4   2.0000     -11.297801      -307.4288
   5   2.0000     -11.273549      -306.7689
   6   2.0000     -11.262985      -306.4814
   7   2.0000     -11.245575      -306.0076
   8   2.0000      -1.398989       -38.0684
   9   2.0000      -1.366172       -37.1754
  10   2.0000      -1.347031       -36.6546
  11   2.0000      -1.311277       -35.6817
  12   2.0000      -0.948473       -25.8093
  13   2.0000      -0.925845       -25.1935
  14   2.0000      -0.912643       -24.8343
  15   2.0000      -0.890904       -24.2427
  16   2.0000      -0.732501       -19.9324
  17   2.0000      -0.708865       -19.2892
  18   2.0000      -0.690756       -18.7964
  19   2.0000      -0.668441       -18.1892
  20   2.0000      -0.648935       -17.6584
  21   2.0000      -0.624855       -17.0032
  22   2.0000      -0.623799       -16.9744
  23   2.0000      -0.610528       -16.6133
  24   2.0000      -0.595861       -16.2142
  25   2.0000      -0.589505       -16.0412
  26   2.0000      -0.582479       -15.8501
  27   2.0000      -0.553945       -15.0736
  28   2.0000      -0.541790       -14.7429
  29   2.0000      -0.518614       -14.1122
  30   2.0000      -0.497951       -13.5499
  31   2.0000      -0.481036       -13.0897
  32   2.0000      -0.477978       -13.0065
  33   2.0000      -0.450285       -12.2529
  34   2.0000      -0.434577       -11.8255
  35   2.0000      -0.410169       -11.1613
  36   0.0000       0.110516         3.0073
  37   0.0000       0.141336         3.8459
  38   0.0000       0.155305         4.2261
  39   0.0000       0.166792         4.5386
  40   0.0000       0.185309         5.0425

MULLIKEN ATOMIC CHARGES
-----------------------
   0 O :   -0.514318
   1 H :    0.349371
   2 C :   -0.198995
   3 H :    0.138392
   4 H :    0.135916
   5 H :    0.132194
   6 O :   -0.550761
   7 H :    0.365741
   8 C :   -0.162187
   9 H :    0.128727
  10 H :    0.121919
  11 H :    0.102394
  12 O :   -0.547416
  13 H :    0.353266
  14 C :   -0.180690
  15 H :    0.135442
  16 H :    0.115759
  17 H :    0.110133
  18 O :   -0.514584
  19 H :    0.352027
  20 C :   -0.148183
  21 H :    0.118216
  22 H :    0.095322
  23 H :    0.062314
Sum of atomic charges:   -0.0000000

LOEWDIN ATOMIC CHARGES
----------------------
   0 O :   -0.074116
   1 H :    0.204075
   2 C :   -0.382407
   3 H :    0.114851
   4 H :    0.103284
   5 H :    0.106752
   6 O :   -0.085203
   7 H :    0.169535
   8 C :   -0.393423
   9 H :    0.110997
  10 H :    0.101864
  11 H :    0.097186
  12 O :   -0.086948
  13 H :    0.165436
  14 C :   -0.393274
  15 H :    0.111916
  16 H :    0.100179
  17 H :    0.096392
  18 O :   -0.108001
  19 H :    0.163715
  20 C :   -0.405438
  21 H :    0.105741
  22 H :    0.090795
  23 H :    0.086091

  Mayer bond orders larger than 0.100000
B(  0-O ,  1-H ) :   0.8254 B(  0-O ,  2-C ) :   0.8681 B(  2-C ,  3-H ) :   0.9400
B(  2-C ,  4-H ) :   0.9386 B(  2-C ,  5-H ) :   0.9346 B(  6-O ,  7-H ) :   0.7634
B(  6-O ,  8-C ) :   0.8756 B(  6-O , 13-H ) :   0.1040 B(  8-C ,  9-H ) :   0.9428
B(  8-C , 10-H ) :   0.9349 B(  8-C , 11-H ) :   0.9421 B( 12-O , 13-H ) :   0.7658
B( 12-O , 14-C ) :   0.8896 B( 14-C , 15-H ) :   0.9434 B( 14-C , 16-H ) :   0.9394
B( 14-C , 17-H ) :   0.9373 B( 18-O , 19-H ) :   0.7928 B( 18-O , 20-C ) :   0.9603
B( 20-C , 21-H ) :   0.9394 B( 20-C , 22-H ) :   0.9427 B( 20-C , 23-H ) :   0.9361

MP2 TOTAL ENERGY:     -462.058492945 Eh
FINAL SINGLE POINT ENERGY      -462.058492945357

DIPOLE MOMENT
-------------
                                X             Y             Z
Electronic contribution:     -2.60159       1.84561       1.49055
Nuclear contribution   :      3.19161      -0.57471      -3.06868
                        -----------------------------------------
Total Dipole Moment    :      0.59002       1.27089      -1.57813
                        -----------------------------------------
Magnitude (a.u.)       :      2.11040
Magnitude (Debye)      :      5.36421

Rotational constants in cm-1:     0.056785     0.020408     0.018442
Rotational constants in MHz :  1702.371145   611.826412   552.882162

                             ****ORCA TERMINATED NORMALLY****
TOTAL RUN TIME: 0 days 0 hours 40 minutes 26 seconds 202 msec
