                         Program Version 4.2.0 -  RELEASE  -
|  1> # 16meoh.pires.deturi.1meoh.dset-orca.engrad-mp2.def2tzvp
|  2> ! MP2 def2-TZVP EnGrad TightSCF FrozenCore
|  3>
|  4> %pal
|  5>     nprocs 6
|  6> end
|  7>
|  8> %maxcore 8000
|  9>
| 10> %scf
| 11>     ConvForced true
| 12> end
| 13>
| 14> *xyz 0 1
| 15> O  -3.018792090   0.717314504   1.677125339
| 16> H  -2.681874070   0.523685618   0.765530370
| 17> C  -3.327813915  -0.554209079   2.217429913
| 18> H  -3.775050691  -0.349775379   3.193588070
| 19> H  -2.417417696  -1.154040380   2.348057089
| 20> H  -4.041081915  -1.100433103   1.587926348
| 21> *
| 22>
| 23>
| 24> $new_job
| 25>
| 26> # 16meoh.pires.deturi.1meoh.dset-orca.engrad-mp2.def2tzvp
| 27> ! MP2 def2-TZVP EnGrad TightSCF FrozenCore
| 28>
| 29> %pal
| 30>     nprocs 6
| 31> end
| 32>
| 33> %maxcore 8000
| 34>
| 35> %scf
| 36>     ConvForced true
| 37> end
| 38>
| 39> *xyz 0 1
| 40> O  -5.309877363   2.173012954   1.188582879
| 41> H  -4.534321841   1.587487930   1.379525357
| 42> C  -5.524215264   2.030738249  -0.202328645
| 43> H  -6.399408851   2.646836053  -0.422718832
| 44> H  -5.729319079   0.987319329  -0.473929368
| 45> H  -4.658344224   2.394044855  -0.781355791
| 46> *
| 47>
| 48>
| 49> $new_job
| 50>
| 51> # 16meoh.pires.deturi.1meoh.dset-orca.engrad-mp2.def2tzvp
| 52> ! MP2 def2-TZVP EnGrad TightSCF FrozenCore
| 53>
| 54> %pal
| 55>     nprocs 6
| 56> end
| 57>
| 58> %maxcore 8000
| 59>
| 60> %scf
| 61>     ConvForced true
| 62> end
| 63>
| 64> *xyz 0 1
| 65> O  -4.064103038   4.621735442   1.626909031
| 66> H  -4.590229647   3.796181513   1.484292958
| 67> C  -3.292997649   4.338098334   2.780335252
| 68> H  -2.675094201   5.226299611   2.937834201
| 69> H  -2.649781641   3.461868441   2.626910731
| 70> H  -3.931524729   4.175879475   3.655937532
| 71> *
| 72>
| 73>
| 74> $new_job
| 75>
| 76> # 16meoh.pires.deturi.1meoh.dset-orca.engrad-mp2.def2tzvp
| 77> ! MP2 def2-TZVP EnGrad TightSCF FrozenCore
| 78>
| 79> %pal
| 80>     nprocs 6
| 81> end
| 82>
| 83> %maxcore 8000
| 84>
| 85> %scf
| 86>     ConvForced true
| 87> end
| 88>
| 89> *xyz 0 1
| 90> O   1.929195936   3.618048545  -0.931010398
| 91> H   1.367676373   4.258177212  -0.420185781
| 92> C   1.304856342   3.528515847  -2.197292674
| 93> H   1.897470364   2.789885309  -2.755252348
| 94> H   1.326381056   4.491848269  -2.719278088
| 95> H   0.261366991   3.180732367  -2.111617621
| 96> *
| 97>
| 98>
| 99> $new_job
|100>
|101> # 16meoh.pires.deturi.1meoh.dset-orca.engrad-mp2.def2tzvp
|102> ! MP2 def2-TZVP EnGrad TightSCF FrozenCore
|103>
|104> %pal
|105>     nprocs 6
|106> end
|107>
|108> %maxcore 8000
|109>
|110> %scf
|111>     ConvForced true
|112> end
|113>
|114> *xyz 0 1
|115> O  -2.216115376   4.749095837  -0.426586865
|116> H  -2.892972562   4.756806409   0.297554489
|117> C  -2.145196476   3.385580824  -0.798927473
|118> H  -1.374839519   3.330421880  -1.581028282
|119> H  -3.107474472   3.026881004  -1.197845003
|120> H  -1.847243939   2.750089261   0.046884661
|121> *
|122>
|123>
|124> $new_job
|125>
|126> # 16meoh.pires.deturi.1meoh.dset-orca.engrad-mp2.def2tzvp
|127> ! MP2 def2-TZVP EnGrad TightSCF FrozenCore
|128>
|129> %pal
|130>     nprocs 6
|131> end
|132>
|133> %maxcore 8000
|134>
|135> %scf
|136>     ConvForced true
|137> end
|138>
|139> *xyz 0 1
|140> O   0.316061100   5.345871973   0.473092452
|141> H  -0.616689258   5.165468085   0.187404106
|142> C   0.578486418   6.662109384   0.026039367
|143> H   1.585323102   6.890649250   0.385706472
|144> H  -0.134464865   7.379534886   0.447371285
|145> H   0.556314281   6.722601577  -1.069193719
|146> *
|147>
|148>
|149> $new_job
|150>
|151> # 16meoh.pires.deturi.1meoh.dset-orca.engrad-mp2.def2tzvp
|152> ! MP2 def2-TZVP EnGrad TightSCF FrozenCore
|153>
|154> %pal
|155>     nprocs 6
|156> end
|157>
|158> %maxcore 8000
|159>
|160> %scf
|161>     ConvForced true
|162> end
|163>
|164> *xyz 0 1
|165> O  -2.341640820   0.182306478  -0.945271097
|166> H  -2.775583541  -0.703490443  -1.031145457
|167> C  -0.954493272  -0.064104109  -1.084615627
|168> H  -0.497581745   0.930773221  -1.138161685
|169> H  -0.728321106  -0.625561810  -1.998089387
|170> H  -0.559650957  -0.606324671  -0.209179354
|171> *
|172>
|173>
|174> $new_job
|175>
|176> # 16meoh.pires.deturi.1meoh.dset-orca.engrad-mp2.def2tzvp
|177> ! MP2 def2-TZVP EnGrad TightSCF FrozenCore
|178>
|179> %pal
|180>     nprocs 6
|181> end
|182>
|183> %maxcore 8000
|184>
|185> %scf
|186>     ConvForced true
|187> end
|188>
|189> *xyz 0 1
|190> O   1.909663583   1.036320930   0.018789196
|191> H   1.913335293   1.992376107  -0.242726220
|192> C   2.710412036   0.956618814   1.182993504
|193> H   2.515379678  -0.047288030   1.587158098
|194> H   2.430690888   1.712684309   1.924427492
|195> H   3.774024475   1.057853627   0.936209412
|196> *
|197>
|198>
|199> $new_job
|200>
|201> # 16meoh.pires.deturi.1meoh.dset-orca.engrad-mp2.def2tzvp
|202> ! MP2 def2-TZVP EnGrad TightSCF FrozenCore
|203>
|204> %pal
|205>     nprocs 6
|206> end
|207>
|208> %maxcore 8000
|209>
|210> %scf
|211>     ConvForced true
|212> end
|213>
|214> *xyz 0 1
|215> O   0.505545866  -3.169259199   1.456044168
|216> H   1.368791220  -3.519897250   1.785412817
|217> C   0.439028018  -1.851865448   1.970216360
|218> H  -0.288601056  -1.323302496   1.336181030
|219> H   1.408233020  -1.329128129   1.920126732
|220> H   0.080654853  -1.867598710   3.005290052
|221> *
|222>
|223>
|224> $new_job
|225>
|226> # 16meoh.pires.deturi.1meoh.dset-orca.engrad-mp2.def2tzvp
|227> ! MP2 def2-TZVP EnGrad TightSCF FrozenCore
|228>
|229> %pal
|230>     nprocs 6
|231> end
|232>
|233> %maxcore 8000
|234>
|235> %scf
|236>     ConvForced true
|237> end
|238>
|239> *xyz 0 1
|240> O   0.126509440  -3.076363248  -1.256196668
|241> H   0.340008795  -3.093524223  -0.288451805
|242> C   1.318820081  -3.418433896  -1.929271824
|243> H   1.042211472  -3.479571685  -2.984824234
|244> H   1.717688319  -4.384686928  -1.592897088
|245> H   2.086886817  -2.645978282  -1.791305838
|246> *
|247>
|248>
|249> $new_job
|250>
|251> # 16meoh.pires.deturi.1meoh.dset-orca.engrad-mp2.def2tzvp
|252> ! MP2 def2-TZVP EnGrad TightSCF FrozenCore
|253>
|254> %pal
|255>     nprocs 6
|256> end
|257>
|258> %maxcore 8000
|259>
|260> %scf
|261>     ConvForced true
|262> end
|263>
|264> *xyz 0 1
|265> O  -2.240549001  -4.340367635  -1.757085838
|266> H  -1.330244334  -3.974402199  -1.625908969
|267> C  -2.368613939  -5.344577342  -0.768563191
|268> H  -3.385879733  -5.728552846  -0.882562074
|269> H  -2.237606518  -4.939664632   0.242205144
|270> H  -1.650692371  -6.156309817  -0.932735905
|271> *
|272>
|273>
|274> $new_job
|275>
|276> # 16meoh.pires.deturi.1meoh.dset-orca.engrad-mp2.def2tzvp
|277> ! MP2 def2-TZVP EnGrad TightSCF FrozenCore
|278>
|279> %pal
|280>     nprocs 6
|281> end
|282>
|283> %maxcore 8000
|284>
|285> %scf
|286>     ConvForced true
|287> end
|288>
|289> *xyz 0 1
|290> O  -3.745530256  -2.181170077  -0.940717811
|291> H  -3.256375244  -2.983228774  -1.256562685
|292> C  -4.830023615  -2.030924414  -1.835448747
|293> H  -5.367049145  -1.144924407  -1.481069017
|294> H  -5.495188050  -2.901194789  -1.805874980
|295> H  -4.486329742  -1.867261732  -2.863517219
|296> *
|297>
|298>
|299> $new_job
|300>
|301> # 16meoh.pires.deturi.1meoh.dset-orca.engrad-mp2.def2tzvp
|302> ! MP2 def2-TZVP EnGrad TightSCF FrozenCore
|303>
|304> %pal
|305>     nprocs 6
|306> end
|307>
|308> %maxcore 8000
|309>
|310> %scf
|311>     ConvForced true
|312> end
|313>
|314> *xyz 0 1
|315> O   3.190012295  -0.294310707  -2.020941016
|316> H   2.714509117   0.163887168  -1.279560508
|317> C   3.773621856   0.754487110  -2.771105983
|318> H   4.169048413   0.279603731  -3.672411353
|319> H   4.589570778   1.231807210  -2.215189996
|320> H   3.027632133   1.516876814  -3.048043373
|321> *
|322>
|323>
|324> $new_job
|325>
|326> # 16meoh.pires.deturi.1meoh.dset-orca.engrad-mp2.def2tzvp
|327> ! MP2 def2-TZVP EnGrad TightSCF FrozenCore
|328>
|329> %pal
|330>     nprocs 6
|331> end
|332>
|333> %maxcore 8000
|334>
|335> %scf
|336>     ConvForced true
|337> end
|338>
|339> *xyz 0 1
|340> O   5.209159061  -1.760286019  -0.887111380
|341> H   4.488190304  -1.244416518  -1.334663238
|342> C   5.098612890  -3.068562606  -1.410992649
|343> H   5.998675499  -3.590032498  -1.074395254
|344> H   5.058726259  -3.069197366  -2.505687480
|345> H   4.207235260  -3.583539786  -1.010262625
|346> *
|347>
|348>
|349> $new_job
|350>
|351> # 16meoh.pires.deturi.1meoh.dset-orca.engrad-mp2.def2tzvp
|352> ! MP2 def2-TZVP EnGrad TightSCF FrozenCore
|353>
|354> %pal
|355>     nprocs 6
|356> end
|357>
|358> %maxcore 8000
|359>
|360> %scf
|361>     ConvForced true
|362> end
|363>
|364> *xyz 0 1
|365> O   4.503295638  -1.807526466   1.768213514
|366> H   4.809734628  -1.780091171   0.825623027
|367> C   5.683820585  -1.783410235   2.546417170
|368> H   5.340445492  -1.814134467   3.583904082
|369> H   6.255091750  -0.864500960   2.373477866
|370> H   6.318124312  -2.653917265   2.341240921
|371> *
|372>
|373>
|374> $new_job
|375>
|376> # 16meoh.pires.deturi.1meoh.dset-orca.engrad-mp2.def2tzvp
|377> ! MP2 def2-TZVP EnGrad TightSCF FrozenCore
|378>
|379> %pal
|380>     nprocs 6
|381> end
|382>
|383> %maxcore 8000
|384>
|385> %scf
|386>     ConvForced true
|387> end
|388>
|389> *xyz 0 1
|390> O   3.008513329  -4.077296804   2.205052849
|391> H   3.600952247  -3.293343640   2.081078922
|392> C   3.413698687  -4.999152804   1.213529583
|393> H   2.677141565  -5.805820476   1.250508246
|394> H   4.410233455  -5.399632470   1.432393730
|395> H   3.419685405  -4.546257033   0.206276496
|396> *
|397>
|398>                          ****END OF INPUT****
 Total Charge           Charge          ....    0
 Multiplicity           Mult            ....    1
 Number of Electrons    NEL             ....   18
MP2 TOTAL ENERGY:     -115.506372183 Eh
FINAL SINGLE POINT ENERGY      -115.506372183212
MP2 TOTAL ENERGY:     -115.506401564 Eh
FINAL SINGLE POINT ENERGY      -115.506401564439
MP2 TOTAL ENERGY:     -115.506402167 Eh
FINAL SINGLE POINT ENERGY      -115.506402167214
MP2 TOTAL ENERGY:     -115.506202411 Eh
FINAL SINGLE POINT ENERGY      -115.506202410879
MP2 TOTAL ENERGY:     -115.506203447 Eh
FINAL SINGLE POINT ENERGY      -115.506203447073
MP2 TOTAL ENERGY:     -115.506392345 Eh
FINAL SINGLE POINT ENERGY      -115.506392345000
FINAL SINGLE POINT ENERGY      -115.506391772792
FINAL SINGLE POINT ENERGY      -115.506225451562
FINAL SINGLE POINT ENERGY      -115.505835634299
FINAL SINGLE POINT ENERGY      -115.506537413388
MP2 TOTAL ENERGY:     -115.506515171 Eh
FINAL SINGLE POINT ENERGY      -115.506515171014
MP2 TOTAL ENERGY:     -115.506500327 Eh
FINAL SINGLE POINT ENERGY      -115.506500327325
MP2 TOTAL ENERGY:     -115.506217443 Eh
FINAL SINGLE POINT ENERGY      -115.506217443268
MP2 TOTAL ENERGY:     -115.506162939 Eh
FINAL SINGLE POINT ENERGY      -115.506162938988
MP2 TOTAL ENERGY:     -115.506511635 Eh
FINAL SINGLE POINT ENERGY      -115.506511634540

CARTESIAN COORDINATES (ANGSTROEM)
---------------------------------
  O      3.008513   -4.077297    2.205053
  H      3.600952   -3.293344    2.081079
  C      3.413699   -4.999153    1.213530
  H      2.677142   -5.805820    1.250508
  H      4.410233   -5.399632    1.432394
  H      3.419685   -4.546257    0.206276

 Multiplicity           Mult            ....    1
 Number of Electrons    NEL             ....   18
 Basis Dimension        Dim             ....   86

ORBITAL ENERGIES
----------------

  NO   OCC          E(Eh)            E(eV)
   0   2.0000     -20.557601      -559.4008
   1   2.0000     -11.270758      -306.6929
   2   2.0000      -1.353463       -36.8296
   3   2.0000      -0.917371       -24.9629
   4   2.0000      -0.686204       -18.6726
   5   2.0000      -0.620246       -16.8778
   6   2.0000      -0.589060       -16.0291
   7   2.0000      -0.503483       -13.7005
   8   2.0000      -0.448762       -12.2114
   9   0.0000       0.134269         3.6536
  10   0.0000       0.178636         4.8609
  11   0.0000       0.226814         6.1719
  12   0.0000       0.230417         6.2700
  13   0.0000       0.255520         6.9530

MULLIKEN ATOMIC CHARGES
-----------------------
   0 O :   -0.488041
   1 H :    0.318878
   2 C :   -0.175313
   3 H :    0.127938
   4 H :    0.108352
   5 H :    0.108186
Sum of atomic charges:   -0.0000000

LOEWDIN ATOMIC CHARGES
----------------------
   0 O :   -0.099404
   1 H :    0.189144
   2 C :   -0.390593
   3 H :    0.110377
   4 H :    0.094281
   5 H :    0.096194

  Mayer bond orders larger than 0.100000
B(  0-O ,  1-H ) :   0.8461 B(  0-O ,  2-C ) :   0.9275 B(  2-C ,  3-H ) :   0.9393
B(  2-C ,  4-H ) :   0.9381 B(  2-C ,  5-H ) :   0.9392

MP2 TOTAL ENERGY:     -115.506359786 Eh
FINAL SINGLE POINT ENERGY      -115.506359786423

DIPOLE MOMENT
-------------
                                X             Y             Z
Electronic contribution:     -0.61216       1.05654       1.28820
Nuclear contribution   :      1.12771      -0.94058      -1.75536
                        -----------------------------------------
Total Dipole Moment    :      0.51555       0.11596      -0.46716
                        -----------------------------------------
Magnitude (a.u.)       :      0.70532
Magnitude (Debye)      :      1.79277

Rotational constants in cm-1:     4.127712     0.840660     0.806483
Rotational constants in MHz : 123745.699130 25202.339874 24177.744816

                             ****ORCA TERMINATED NORMALLY****
TOTAL RUN TIME: 0 days 0 hours 2 minutes 59 seconds 211 msec
