                         Program Version 4.2.0 -  RELEASE  -
|  1> # 4h2o.temelso.etal.dset.2h2o.dset-orca.engrad-mp2.def2tzvp
|  2> ! MP2 def2-TZVP EnGrad TightSCF FrozenCore
|  3>
|  4> %pal
|  5>     nprocs 12
|  6> end
|  7>
|  8> %maxcore 8000
|  9>
| 10> %scf
| 11>     ConvForced true
| 12> end
| 13>
| 14> *xyz 0 1
| 15> O  -1.325577436  -0.018444737  -0.171803356
| 16> H  -1.743777436  -0.233044737  -1.014603356
| 17> H  -1.488777436   0.945055263  -0.048303356
| 18> O   1.399822564   0.019955263   0.183596644
| 19> H   0.442222564  -0.118844737  -0.001103356
| 20> H   1.611722564  -0.617144737   0.876796644
| 21> *
| 22>
| 23>
| 24> $new_job
| 25>
| 26> # 4h2o.temelso.etal.dset.2h2o.dset-orca.engrad-mp2.def2tzvp
| 27> ! MP2 def2-TZVP EnGrad TightSCF FrozenCore
| 28>
| 29> %pal
| 30>     nprocs 12
| 31> end
| 32>
| 33> %maxcore 8000
| 34>
| 35> %scf
| 36>     ConvForced true
| 37> end
| 38>
| 39> *xyz 0 1
| 40> O  -1.320717629  -1.380843136  -0.355459903
| 41> H  -1.738917629  -1.595443136  -1.198259903
| 42> H  -1.483917629  -0.417343136  -0.231959903
| 43> O   1.308482371   1.370056864   0.433940097
| 44> H   1.466682371   0.402156864   0.341840097
| 45> H   1.950382371   1.781856864  -0.157459903
| 46> *
| 47>
| 48>
| 49> $new_job
| 50>
| 51> # 4h2o.temelso.etal.dset.2h2o.dset-orca.engrad-mp2.def2tzvp
| 52> ! MP2 def2-TZVP EnGrad TightSCF FrozenCore
| 53>
| 54> %pal
| 55>     nprocs 12
| 56> end
| 57>
| 58> %maxcore 8000
| 59>
| 60> %scf
| 61>     ConvForced true
| 62> end
| 63>
| 64> *xyz 0 1
| 65> O   0.038424512  -1.403390050  -0.149950816
| 66> H  -0.379775488  -1.617990050  -0.992750816
| 67> H  -0.124775488  -0.439890050  -0.026450816
| 68> O  -0.035375488   1.328909950   0.140149184
| 69> H   0.927024512   1.471909950   0.293849184
| 70> H  -0.470875488   1.768309950   0.880949184
| 71> *
| 72>
| 73>
| 74> $new_job
| 75>
| 76> # 4h2o.temelso.etal.dset.2h2o.dset-orca.engrad-mp2.def2tzvp
| 77> ! MP2 def2-TZVP EnGrad TightSCF FrozenCore
| 78>
| 79> %pal
| 80>     nprocs 12
| 81> end
| 82>
| 83> %maxcore 8000
| 84>
| 85> %scf
| 86>     ConvForced true
| 87> end
| 88>
| 89> *xyz 0 1
| 90> O   0.046578285  -1.318990369  -0.212104778
| 91> H  -0.911021715  -1.457790369  -0.396804778
| 92> H   0.258478285  -1.956090369   0.481095222
| 93> O  -0.049621715   1.393509631   0.221895222
| 94> H   0.108578285   0.425609631   0.129795222
| 95> H   0.592278285   1.805309631  -0.369504778
| 96> *
| 97>
| 98>
| 99> $new_job
|100>
|101> # 4h2o.temelso.etal.dset.2h2o.dset-orca.engrad-mp2.def2tzvp
|102> ! MP2 def2-TZVP EnGrad TightSCF FrozenCore
|103>
|104> %pal
|105>     nprocs 12
|106> end
|107>
|108> %maxcore 8000
|109>
|110> %scf
|111>     ConvForced true
|112> end
|113>
|114> *xyz 0 1
|115> O   1.405720426  -1.341537283  -0.006595692
|116> H   0.448120426  -1.480337283  -0.191295692
|117> H   1.617620426  -1.978637283   0.686604308
|118> O  -1.393479574   1.352362717  -0.071895692
|119> H  -0.431079574   1.495362717   0.081804308
|120> H  -1.828979574   1.791762717   0.668904308
|121> *
|122>
|123>
|124> $new_job
|125>
|126> # 4h2o.temelso.etal.dset.2h2o.dset-orca.engrad-mp2.def2tzvp
|127> ! MP2 def2-TZVP EnGrad TightSCF FrozenCore
|128>
|129> %pal
|130>     nprocs 12
|131> end
|132>
|133> %maxcore 8000
|134>
|135> %scf
|136>     ConvForced true
|137> end
|138>
|139> *xyz 0 1
|140> O   1.314380233   0.008564318   0.243747761
|141> H   1.472580233  -0.959335682   0.151647761
|142> H   1.956280233   0.420364318  -0.347652239
|143> O  -1.388619767  -0.010035682  -0.255552239
|144> H  -0.426219767   0.132964318  -0.101852239
|145> H  -1.824119767   0.429364318   0.485247761
|146> *
|147>
|148>
|149> $new_job
|150>
|151> # 4h2o.temelso.etal.dset.2h2o.dset-orca.engrad-mp2.def2tzvp
|152> ! MP2 def2-TZVP EnGrad TightSCF FrozenCore
|153>
|154> %pal
|155>     nprocs 12
|156> end
|157>
|158> %maxcore 8000
|159>
|160> %scf
|161>     ConvForced true
|162> end
|163>
|164> *xyz 0 1
|165> O   0.036144320  -1.293436216  -0.342591114
|166> H   0.293244320  -1.960136216   0.305908886
|167> H  -0.925355680  -1.440636216  -0.493591114
|168> O  -0.043355680   1.364363784   0.354708886
|169> H   0.632944320   1.854963784  -0.127691114
|170> H   0.113644320   0.419863784   0.123008886
|171> *
|172>
|173>
|174> $new_job
|175>
|176> # 4h2o.temelso.etal.dset.2h2o.dset-orca.engrad-mp2.def2tzvp
|177> ! MP2 def2-TZVP EnGrad TightSCF FrozenCore
|178>
|179> %pal
|180>     nprocs 12
|181> end
|182>
|183> %maxcore 8000
|184>
|185> %scf
|186>     ConvForced true
|187> end
|188>
|189> *xyz 0 1
|190> O   1.398686014  -1.347836014  -0.120344405
|191> H   1.655786014  -2.014536014   0.528155595
|192> H   0.437186014  -1.495036014  -0.271344405
|193> O  -1.398713986   1.347863986   0.120355595
|194> H  -0.437213986   1.495063986   0.271755595
|195> H  -1.655313986   2.014063986  -0.528744405
|196> *
|197>
|198>
|199> $new_job
|200>
|201> # 4h2o.temelso.etal.dset.2h2o.dset-orca.engrad-mp2.def2tzvp
|202> ! MP2 def2-TZVP EnGrad TightSCF FrozenCore
|203>
|204> %pal
|205>     nprocs 12
|206> end
|207>
|208> %maxcore 8000
|209>
|210> %scf
|211>     ConvForced true
|212> end
|213>
|214> *xyz 0 1
|215> O   1.402052425  -0.008732627   0.193797093
|216> H   1.659152425  -0.675432627   0.842297093
|217> H   0.440552425  -0.155932627   0.042797093
|218> O  -1.316047575   0.028867373  -0.261602907
|219> H  -1.472947575   0.973367373  -0.030202907
|220> H  -1.992047575  -0.461632627   0.221497093
|221> *
|222>
|223>
|224> $new_job
|225>
|226> # 4h2o.temelso.etal.dset.2h2o.dset-orca.engrad-mp2.def2tzvp
|227> ! MP2 def2-TZVP EnGrad TightSCF FrozenCore
|228>
|229> %pal
|230>     nprocs 12
|231> end
|232>
|233> %maxcore 8000
|234>
|235> %scf
|236>     ConvForced true
|237> end
|238>
|239> *xyz 0 1
|240> O   1.315922400  -0.029006184   0.262197313
|241> H   1.992222400   0.461593816  -0.220202687
|242> H   1.472922400  -0.973506184   0.030497313
|243> O  -1.401977600   0.008893816  -0.194402687
|244> H  -0.440477600   0.156093816  -0.043002687
|245> H  -1.658577600   0.675093816  -0.843502687
|246> *
|247>
|248>
|249> $new_job
|250>
|251> # 4h2o.temelso.etal.dset.2h2o.dset-orca.engrad-mp2.def2tzvp
|252> ! MP2 def2-TZVP EnGrad TightSCF FrozenCore
|253>
|254> %pal
|255>     nprocs 12
|256> end
|257>
|258> %maxcore 8000
|259>
|260> %scf
|261>     ConvForced true
|262> end
|263>
|264> *xyz 0 1
|265> O   1.319288811   1.310097203   0.576338811
|266> H   1.995588811   1.800697203   0.093938811
|267> H   1.476288811   0.365597203   0.344638811
|268> O  -1.319311189  -1.310102797  -0.576361189
|269> H  -1.476211189  -0.365602797  -0.344961189
|270> H  -1.995311189  -1.800602797  -0.093261189
|271> *
|272>
|273>
|274> $new_job
|275>
|276> # 4h2o.temelso.etal.dset.2h2o.dset-orca.engrad-mp2.def2tzvp
|277> ! MP2 def2-TZVP EnGrad TightSCF FrozenCore
|278>
|279> %pal
|280>     nprocs 12
|281> end
|282>
|283> %maxcore 8000
|284>
|285> %scf
|286>     ConvForced true
|287> end
|288>
|289> *xyz 0 1
|290> O  -0.036069495   1.293597406   0.341985520
|291> H   0.925430505   1.440797406   0.493385520
|292> H  -0.292669495   1.959797406  -0.307114480
|293> O   0.043230505  -1.364502594  -0.354114480
|294> H  -0.113669495  -0.420002594  -0.122714480
|295> H  -0.632769495  -1.855002594   0.128985520
|296> *
|297>
|298>
|299> $new_job
|300>
|301> # 4h2o.temelso.etal.dset.2h2o.dset-orca.engrad-mp2.def2tzvp
|302> ! MP2 def2-TZVP EnGrad TightSCF FrozenCore
|303>
|304> %pal
|305>     nprocs 12
|306> end
|307>
|308> %maxcore 8000
|309>
|310> %scf
|311>     ConvForced true
|312> end
|313>
|314> *xyz 0 1
|315> O   1.663639687  -0.265031500  -0.064958127
|316> H   1.371039687   0.478068500  -0.628358127
|317> H   2.611439687  -0.137331500   0.059341873
|318> O  -1.736760313   0.262368500   0.057841873
|319> H  -1.437660313   0.284768500   0.976341873
|320> H  -1.384060313  -0.583231500  -0.294358127
|321> *
|322>
|323>
|324> $new_job
|325>
|326> # 4h2o.temelso.etal.dset.2h2o.dset-orca.engrad-mp2.def2tzvp
|327> ! MP2 def2-TZVP EnGrad TightSCF FrozenCore
|328>
|329> %pal
|330>     nprocs 12
|331> end
|332>
|333> %maxcore 8000
|334>
|335> %scf
|336>     ConvForced true
|337> end
|338>
|339> *xyz 0 1
|340> O   0.807451537  -0.846720309   0.823044510
|341> H   0.514851537  -0.103620309   0.259644510
|342> H   1.755251537  -0.719020309   0.947344510
|343> O  -0.795848463   0.756379691  -0.814255490
|344> H  -1.537448463   0.609679691  -0.183155490
|345> H  -0.916848463   1.647079691  -1.163355490
|346> *
|347>
|348>
|349> $new_job
|350>
|351> # 4h2o.temelso.etal.dset.2h2o.dset-orca.engrad-mp2.def2tzvp
|352> ! MP2 def2-TZVP EnGrad TightSCF FrozenCore
|353>
|354> %pal
|355>     nprocs 12
|356> end
|357>
|358> %maxcore 8000
|359>
|360> %scf
|361>     ConvForced true
|362> end
|363>
|364> *xyz 0 1
|365> O   0.962971347   0.656749926   0.732500800
|366> H   0.670371347   1.399849926   0.169100800
|367> H   1.910771347   0.784449926   0.856800800
|368> O  -1.049328653  -0.750850074  -0.694799200
|369> H  -1.014828653  -0.068250074  -1.382499200
|370> H  -0.195428653  -0.622250074  -0.241899200
|371> *
|372>
|373>
|374> $new_job
|375>
|376> # 4h2o.temelso.etal.dset.2h2o.dset-orca.engrad-mp2.def2tzvp
|377> ! MP2 def2-TZVP EnGrad TightSCF FrozenCore
|378>
|379> %pal
|380>     nprocs 12
|381> end
|382>
|383> %maxcore 8000
|384>
|385> %scf
|386>     ConvForced true
|387> end
|388>
|389> *xyz 0 1
|390> O  -0.892653356  -0.535634563   0.856320762
|391> H  -0.593553356  -0.513234563   1.774820762
|392> H  -0.539953356  -1.381234563   0.504120762
|393> O   0.904446644   0.540065437  -0.903779238
|394> H   0.162846644   0.393365437  -0.272679238
|395> H   0.783446644   1.430765437  -1.252879238
|396> *
|397>
|398>
|399> $new_job
|400>
|401> # 4h2o.temelso.etal.dset.2h2o.dset-orca.engrad-mp2.def2tzvp
|402> ! MP2 def2-TZVP EnGrad TightSCF FrozenCore
|403>
|404> %pal
|405>     nprocs 12
|406> end
|407>
|408> %maxcore 8000
|409>
|410> %scf
|411>     ConvForced true
|412> end
|413>
|414> *xyz 0 1
|415> O  -0.737133546   0.967835672   0.765777051
|416> H  -0.438033546   0.990235672   1.684277051
|417> H  -0.384433546   0.122235672   0.413577051
|418> O   0.650966454  -0.967164328  -0.784322949
|419> H   0.685466454  -0.284564328  -1.472022949
|420> H   1.504866454  -0.838564328  -0.331422949
|421> *
|422>
|423>
|424> $new_job
|425>
|426> # 4h2o.temelso.etal.dset.2h2o.dset-orca.engrad-mp2.def2tzvp
|427> ! MP2 def2-TZVP EnGrad TightSCF FrozenCore
|428>
|429> %pal
|430>     nprocs 12
|431> end
|432>
|433> %maxcore 8000
|434>
|435> %scf
|436>     ConvForced true
|437> end
|438>
|439> *xyz 0 1
|440> O   0.203778304   1.461846864  -0.106320311
|441> H  -0.537821696   1.315146864   0.524779689
|442> H   0.082778304   2.352546864  -0.455420311
|443> O  -0.205221696  -1.548853136   0.103679689
|444> H  -0.170721696  -0.866253136  -0.584020311
|445> H   0.648678304  -1.420253136   0.556579689
|446> *
|447>
|448>                          ****END OF INPUT****
 Total Charge           Charge          ....    0
 Multiplicity           Mult            ....    1
 Number of Electrons    NEL             ....   20
MP2 TOTAL ENERGY:     -152.633761659 Eh
FINAL SINGLE POINT ENERGY      -152.633761659356
MP2 TOTAL ENERGY:     -152.628314115 Eh
FINAL SINGLE POINT ENERGY      -152.628314115113
MP2 TOTAL ENERGY:     -152.633762292 Eh
FINAL SINGLE POINT ENERGY      -152.633762292005
MP2 TOTAL ENERGY:     -152.633758067 Eh
FINAL SINGLE POINT ENERGY      -152.633758066587
MP2 TOTAL ENERGY:     -152.628314386 Eh
FINAL SINGLE POINT ENERGY      -152.628314386136
MP2 TOTAL ENERGY:     -152.633760154 Eh
FINAL SINGLE POINT ENERGY      -152.633760153858
FINAL SINGLE POINT ENERGY      -152.633834926250
FINAL SINGLE POINT ENERGY      -152.628555617862
FINAL SINGLE POINT ENERGY      -152.632756736687
FINAL SINGLE POINT ENERGY      -152.632752560437
FINAL SINGLE POINT ENERGY      -152.628545516755
FINAL SINGLE POINT ENERGY      -152.633834872235
MP2 TOTAL ENERGY:     -152.630001760 Eh
FINAL SINGLE POINT ENERGY      -152.630001759561
MP2 TOTAL ENERGY:     -152.632922765 Eh
FINAL SINGLE POINT ENERGY      -152.632922765405
MP2 TOTAL ENERGY:     -152.630259865 Eh
FINAL SINGLE POINT ENERGY      -152.630259864600
MP2 TOTAL ENERGY:     -152.633526304 Eh
FINAL SINGLE POINT ENERGY      -152.633526303735
MP2 TOTAL ENERGY:     -152.632482639 Eh
FINAL SINGLE POINT ENERGY      -152.632482639306

CARTESIAN COORDINATES (ANGSTROEM)
---------------------------------
  O      0.203778    1.461847   -0.106320
  H     -0.537822    1.315147    0.524780
  H      0.082778    2.352547   -0.455420
  O     -0.205222   -1.548853    0.103680
  H     -0.170722   -0.866253   -0.584020
  H      0.648678   -1.420253    0.556580

 Multiplicity           Mult            ....    1
 Number of Electrons    NEL             ....   20
 Basis Dimension        Dim             ....   86

ORBITAL ENERGIES
----------------

  NO   OCC          E(Eh)            E(eV)
   0   2.0000     -20.577846      -559.9517
   1   2.0000     -20.547861      -559.1357
   2   2.0000      -1.356555       -36.9137
   3   2.0000      -1.328636       -36.1540
   4   2.0000      -0.724799       -19.7228
   5   2.0000      -0.686713       -18.6864
   6   2.0000      -0.596757       -16.2386
   7   2.0000      -0.566706       -15.4209
   8   2.0000      -0.522629       -14.2215
   9   2.0000      -0.492656       -13.4058
  10   0.0000       0.114391         3.1127
  11   0.0000       0.166323         4.5259
  12   0.0000       0.198673         5.4062
  13   0.0000       0.228022         6.2048
  14   0.0000       0.500155        13.6099

MULLIKEN ATOMIC CHARGES
-----------------------
   0 O :   -0.696796
   1 H :    0.352939
   2 H :    0.342881
   3 O :   -0.682931
   4 H :    0.347797
   5 H :    0.336110
Sum of atomic charges:   -0.0000000

LOEWDIN ATOMIC CHARGES
----------------------
   0 O :   -0.332721
   1 H :    0.176362
   2 H :    0.162388
   3 O :   -0.331521
   4 H :    0.158757
   5 H :    0.166735

  Mayer bond orders larger than 0.100000
B(  0-O ,  1-H ) :   0.8350 B(  0-O ,  2-H ) :   0.8481 B(  3-O ,  4-H ) :   0.8402
B(  3-O ,  5-H ) :   0.8536

MP2 TOTAL ENERGY:     -152.632238854 Eh
FINAL SINGLE POINT ENERGY      -152.632238853624

DIPOLE MOMENT
-------------
                                X             Y             Z
Electronic contribution:     -0.00870      -0.14203      -0.01006
Nuclear contribution   :      0.02147       1.29449       0.03929
                        -----------------------------------------
Total Dipole Moment    :      0.01278       1.15245       0.02923
                        -----------------------------------------
Magnitude (a.u.)       :      1.15290
Magnitude (Debye)      :      2.93043

Rotational constants in cm-1:     7.372953     0.198207     0.197862
Rotational constants in MHz : 221035.577435  5942.084327  5931.754129

                             ****ORCA TERMINATED NORMALLY****
TOTAL RUN TIME: 0 days 0 hours 1 minutes 49 seconds 768 msec
