                         Program Version 4.2.0 -  RELEASE  -
|  1> # 5h2o.temelso.etal.dset.2h2o.dset-orca.engrad-mp2.def2tzvp
|  2> ! MP2 def2-TZVP EnGrad TightSCF FrozenCore
|  3>
|  4> %pal
|  5>     nprocs 12
|  6> end
|  7>
|  8> %maxcore 8000
|  9>
| 10> %scf
| 11>     ConvForced true
| 12> end
| 13>
| 14> *xyz 0 1
| 15> O   0.497160595  -1.249618383  -0.416586660
| 16> H  -0.043539405  -1.499818383  -1.175586660
| 17> H   0.117360595  -0.392818383  -0.108786660
| 18> O  -0.459039405   1.174181617   0.391713340
| 19> H   0.261260595   1.844481617   0.454713340
| 20> H  -0.940239405   1.245681617   1.224513340
| 21> *
| 22>
| 23>
| 24> $new_job
| 25>
| 26> # 5h2o.temelso.etal.dset.2h2o.dset-orca.engrad-mp2.def2tzvp
| 27> ! MP2 def2-TZVP EnGrad TightSCF FrozenCore
| 28>
| 29> %pal
| 30>     nprocs 12
| 31> end
| 32>
| 33> %maxcore 8000
| 34>
| 35> %scf
| 36>     ConvForced true
| 37> end
| 38>
| 39> *xyz 0 1
| 40> O  -0.578831567  -2.107646892  -0.458200057
| 41> H  -1.119531567  -2.357846892  -1.217200057
| 42> H  -0.958631567  -1.250846892  -0.150400057
| 43> O   0.570568433   2.075053108   0.453399943
| 44> H   0.815668433   2.514353108   1.276699943
| 45> H   1.393668433   1.611753108   0.167099943
| 46> *
| 47>
| 48>
| 49> $new_job
| 50>
| 51> # 5h2o.temelso.etal.dset.2h2o.dset-orca.engrad-mp2.def2tzvp
| 52> ! MP2 def2-TZVP EnGrad TightSCF FrozenCore
| 53>
| 54> %pal
| 55>     nprocs 12
| 56> end
| 57>
| 58> %maxcore 8000
| 59>
| 60> %scf
| 61>     ConvForced true
| 62> end
| 63>
| 64> *xyz 0 1
| 65> O  -1.674917378  -1.409424094  -0.032778772
| 66> H  -2.215617378  -1.659624094  -0.791778772
| 67> H  -2.054717378  -0.552624094   0.275021228
| 68> O   1.712982622   1.412075906   0.112221228
| 69> H   1.504682622   0.462275906  -0.054878772
| 70> H   2.161382622   1.707875906  -0.689478772
| 71> *
| 72>
| 73>
| 74> $new_job
| 75>
| 76> # 5h2o.temelso.etal.dset.2h2o.dset-orca.engrad-mp2.def2tzvp
| 77> ! MP2 def2-TZVP EnGrad TightSCF FrozenCore
| 78>
| 79> %pal
| 80>     nprocs 12
| 81> end
| 82>
| 83> %maxcore 8000
| 84>
| 85> %scf
| 86>     ConvForced true
| 87> end
| 88>
| 89> *xyz 0 1
| 90> O  -1.305991658  -0.107565929   0.159740451
| 91> H  -1.846691658  -0.357765929  -0.599259549
| 92> H  -1.685791658   0.749234071   0.467540451
| 93> O   1.389708342   0.120534071  -0.168859549
| 94> H   0.416208342  -0.004065929  -0.067559549
| 95> H   1.787308342  -0.593265929   0.344040451
| 96> *
| 97>
| 98>
| 99> $new_job
|100>
|101> # 5h2o.temelso.etal.dset.2h2o.dset-orca.engrad-mp2.def2tzvp
|102> ! MP2 def2-TZVP EnGrad TightSCF FrozenCore
|103>
|104> %pal
|105>     nprocs 12
|106> end
|107>
|108> %maxcore 8000
|109>
|110> %scf
|111>     ConvForced true
|112> end
|113>
|114> *xyz 0 1
|115> O  -1.089368705  -0.899528801  -0.091729278
|116> H  -0.369068705  -0.229228801  -0.028729278
|117> H  -1.570568705  -0.828028801   0.741070722
|118> O   1.016231295   0.859371199   0.011570722
|119> H   1.261331295   1.298671199   0.834870722
|120> H   1.839331295   0.396071199  -0.274729278
|121> *
|122>
|123>
|124> $new_job
|125>
|126> # 5h2o.temelso.etal.dset.2h2o.dset-orca.engrad-mp2.def2tzvp
|127> ! MP2 def2-TZVP EnGrad TightSCF FrozenCore
|128>
|129> %pal
|130>     nprocs 12
|131> end
|132>
|133> %maxcore 8000
|134>
|135> %scf
|136>     ConvForced true
|137> end
|138>
|139> *xyz 0 1
|140> O  -2.185454516  -0.201306003   0.333692007
|141> H  -1.465154516   0.468993997   0.396692007
|142> H  -2.666654516  -0.129806003   1.166492007
|143> O   2.158645484   0.196393997  -0.329607993
|144> H   1.950345484  -0.753406003  -0.496707993
|145> H   2.607045484   0.492193997  -1.131307993
|146> *
|147>
|148>
|149> $new_job
|150>
|151> # 5h2o.temelso.etal.dset.2h2o.dset-orca.engrad-mp2.def2tzvp
|152> ! MP2 def2-TZVP EnGrad TightSCF FrozenCore
|153>
|154> %pal
|155>     nprocs 12
|156> end
|157>
|158> %maxcore 8000
|159>
|160> %scf
|161>     ConvForced true
|162> end
|163>
|164> *xyz 0 1
|165> O  -1.816528796   1.100552162   0.526211230
|166> H  -1.096228796   1.770852162   0.589211230
|167> H  -2.297728796   1.172052162   1.359011230
|168> O   1.835371204  -1.095147838  -0.610688770
|169> H   0.861871204  -1.219747838  -0.509388770
|170> H   2.232971204  -1.808947838  -0.097788770
|171> *
|172>
|173>
|174> $new_job
|175>
|176> # 5h2o.temelso.etal.dset.2h2o.dset-orca.engrad-mp2.def2tzvp
|177> ! MP2 def2-TZVP EnGrad TightSCF FrozenCore
|178>
|179> %pal
|180>     nprocs 12
|181> end
|182>
|183> %maxcore 8000
|184>
|185> %scf
|186>     ConvForced true
|187> end
|188>
|189> *xyz 0 1
|190> O  -1.155846678   0.699565488   0.395378610
|191> H  -0.910746678   1.138865488   1.218678610
|192> H  -0.332746678   0.236265488   0.109078610
|193> O   1.082653322  -0.661634512  -0.371221390
|194> H   0.874353322  -1.611434512  -0.538321390
|195> H   1.531053322  -0.365834512  -1.172921390
|196> *
|197>
|198>
|199> $new_job
|200>
|201> # 5h2o.temelso.etal.dset.2h2o.dset-orca.engrad-mp2.def2tzvp
|202> ! MP2 def2-TZVP EnGrad TightSCF FrozenCore
|203>
|204> %pal
|205>     nprocs 12
|206> end
|207>
|208> %maxcore 8000
|209>
|210> %scf
|211>     ConvForced true
|212> end
|213>
|214> *xyz 0 1
|215> O  -0.786920958   2.001423653   0.587897833
|216> H  -0.541820958   2.440723653   1.411197833
|217> H   0.036179042   1.538123653   0.301597833
|218> O   0.759379042  -1.953176347  -0.652302167
|219> H  -0.214120958  -2.077776347  -0.551002167
|220> H   1.156979042  -2.666976347  -0.139402167
|221> *
|222>
|223>
|224> $new_job
|225>
|226> # 5h2o.temelso.etal.dset.2h2o.dset-orca.engrad-mp2.def2tzvp
|227> ! MP2 def2-TZVP EnGrad TightSCF FrozenCore
|228>
|229> %pal
|230>     nprocs 12
|231> end
|232>
|233> %maxcore 8000
|234>
|235> %scf
|236>     ConvForced true
|237> end
|238>
|239> *xyz 0 1
|240> O   0.355493231   1.338446451   0.246719118
|241> H   0.147193231   0.388646451   0.079619118
|242> H   0.803893231   1.634246451  -0.554980882
|243> O  -0.336706769  -1.254953549  -0.226880882
|244> H  -1.310206769  -1.379553549  -0.125580882
|245> H   0.060893231  -1.968753549   0.286019118
|246> *
|247>
|248>
|249> $new_job
|250>
|251> # 5h2o.temelso.etal.dset.2h2o.dset-orca.engrad-mp2.def2tzvp
|252> ! MP2 def2-TZVP EnGrad TightSCF FrozenCore
|253>
|254> %pal
|255>     nprocs 12
|256> end
|257>
|258> %maxcore 8000
|259>
|260> %scf
|261>     ConvForced true
|262> end
|263>
|264> *xyz 0 1
|265> O   0.042550456   1.138528622   0.803151645
|266> H  -0.090249544   0.340228622   0.233751645
|267> H  -0.684149544   1.123928622   1.437251645
|268> O  -0.033649544  -1.084071378  -0.753248355
|269> H   0.916750456  -1.347271378  -0.783148355
|270> H  -0.283649544  -0.981371378  -1.680048355
|271> *
|272>
|273>
|274> $new_job
|275>
|276> # 5h2o.temelso.etal.dset.2h2o.dset-orca.engrad-mp2.def2tzvp
|277> ! MP2 def2-TZVP EnGrad TightSCF FrozenCore
|278>
|279> %pal
|280>     nprocs 12
|281> end
|282>
|283> %maxcore 8000
|284>
|285> %scf
|286>     ConvForced true
|287> end
|288>
|289> *xyz 0 1
|290> O  -1.311174056   1.314839601   0.787972781
|291> H  -1.443974056   0.516539601   0.218572781
|292> H  -2.037874056   1.300239601   1.422072781
|293> O   1.317025944  -1.277960399  -0.842027219
|294> H   1.820025944  -1.966060399  -0.390127219
|295> H   1.568925944  -0.436160399  -0.392427219
|296> *
|297>
|298>
|299> $new_job
|300>
|301> # 5h2o.temelso.etal.dset.2h2o.dset-orca.engrad-mp2.def2tzvp
|302> ! MP2 def2-TZVP EnGrad TightSCF FrozenCore
|303>
|304> %pal
|305>     nprocs 12
|306> end
|307>
|308> %maxcore 8000
|309>
|310> %scf
|311>     ConvForced true
|312> end
|313>
|314> *xyz 0 1
|315> O  -1.414789684   0.117825204   0.138758363
|316> H  -1.547589684  -0.680474796  -0.430641637
|317> H  -2.141489684   0.103225204   0.772858363
|318> O   1.517410316  -0.115374796  -0.141141637
|319> H   1.369110316   0.688725204  -0.673641637
|320> H   0.690910316  -0.150374796   0.369258363
|321> *
|322>
|323>
|324> $new_job
|325>
|326> # 5h2o.temelso.etal.dset.2h2o.dset-orca.engrad-mp2.def2tzvp
|327> ! MP2 def2-TZVP EnGrad TightSCF FrozenCore
|328>
|329> %pal
|330>     nprocs 12
|331> end
|332>
|333> %maxcore 8000
|334>
|335> %scf
|336>     ConvForced true
|337> end
|338>
|339> *xyz 0 1
|340> O  -0.699472039  -0.983468232   0.652447966
|341> H  -0.832272039  -1.781768232   0.083047966
|342> H  -1.426172039  -0.998068232   1.286547966
|343> O   0.786427961   1.008531768  -0.705652034
|344> H   0.791627961   1.875231768  -0.281152034
|345> H   0.086427961   0.506731768  -0.243852034
|346> *
|347>
|348>
|349> $new_job
|350>
|351> # 5h2o.temelso.etal.dset.2h2o.dset-orca.engrad-mp2.def2tzvp
|352> ! MP2 def2-TZVP EnGrad TightSCF FrozenCore
|353>
|354> %pal
|355>     nprocs 12
|356> end
|357>
|358> %maxcore 8000
|359>
|360> %scf
|361>     ConvForced true
|362> end
|363>
|364> *xyz 0 1
|365> O  -1.392908664   0.185290214   0.038344093
|366> H  -0.442508664  -0.077909786   0.008444093
|367> H  -1.642908664   0.287990214  -0.888455907
|368> O   1.311491336  -0.184909786  -0.035255907
|369> H   1.814491336  -0.873009786   0.416644093
|370> H   1.563391336   0.656890214   0.414344093
|371> *
|372>
|373>
|374> $new_job
|375>
|376> # 5h2o.temelso.etal.dset.2h2o.dset-orca.engrad-mp2.def2tzvp
|377> ! MP2 def2-TZVP EnGrad TightSCF FrozenCore
|378>
|379> %pal
|380>     nprocs 12
|381> end
|382>
|383> %maxcore 8000
|384>
|385> %scf
|386>     ConvForced true
|387> end
|388>
|389> *xyz 0 1
|390> O  -1.496524292  -1.011724183  -0.610870326
|391> H  -0.546124292  -1.274924183  -0.640770326
|392> H  -1.746524292  -0.909024183  -1.537670326
|393> O   1.511875708   0.977675817   0.665629674
|394> H   1.363575708   1.781775817   0.133129674
|395> H   0.685375708   0.942675817   1.176029674
|396> *
|397>
|398>
|399> $new_job
|400>
|1349> $new_job
|1350>
|1351> # 5h2o.temelso.etal.dset.2h2o.dset-orca.engrad-mp2.def2tzvp
|1352> ! MP2 def2-TZVP EnGrad TightSCF FrozenCore
|1353>
|1354> %pal
|1355>     nprocs 12
|1356> end
|1357>
|1358> %maxcore 8000
|1359>
|1360> %scf
|1361>     ConvForced true
|1362> end
|1363>
|1364> *xyz 0 1
|1365> O   0.057717514  -1.276242568  -0.678963294
|1366> H  -0.161082486  -0.417542568  -0.261363294
|1367> H  -0.253082486  -1.939242568  -0.049663294
|1368> O  -0.055082486   1.254457432   0.561136706
|1369> H  -0.534982486   1.483457432   1.366636706
|1370> H   0.907317514   1.219157432   0.814836706
|1371> *
|1372>
|1373>
|1374> $new_job
|1375>
|1376> # 5h2o.temelso.etal.dset.2h2o.dset-orca.engrad-mp2.def2tzvp
|1377> ! MP2 def2-TZVP EnGrad TightSCF FrozenCore
|1378>
|1379> %pal
|1380>     nprocs 12
|1381> end
|1382>
|1383> %maxcore 8000
|1384>
|1385> %scf
|1386>     ConvForced true
|1387> end
|1388>
|1389> *xyz 0 1
|1390> O  -1.270299098  -1.273501792  -0.680896064
|1391> H  -1.489099098  -0.414801792  -0.263296064
|1392> H  -1.581099098  -1.936501792  -0.051596064
|1393> O   1.287300902   1.269798208   0.688403936
|1394> H   1.271700902   1.956098208  -0.002696064
|1395> H   1.528600902   0.453998208   0.198403936
|1396> *
|1397>
|1398>
|1399> $new_job
|1400>
|1401> # 5h2o.temelso.etal.dset.2h2o.dset-orca.engrad-mp2.def2tzvp
|1402> ! MP2 def2-TZVP EnGrad TightSCF FrozenCore
|1403>
|1404> %pal
|1405>     nprocs 12
|1406> end
|1407>
|1408> %maxcore 8000
|1409>
|1410> %scf
|1411>     ConvForced true
|1412> end
|1413>
|1414> *xyz 0 1
|1415> O  -0.631213743  -2.149890350   0.266989818
|1416> H  -0.850013743  -1.291190350   0.684589818
|1417> H  -0.942013743  -2.812890350   0.896289818
|1418> O   0.710186257   2.108809650  -0.358410182
|1419> H   0.595686257   3.056009650  -0.210010182
|1420> H  -0.057313743   1.700209650   0.080389818
|1421> *
|1422>
|1423>
|1424> $new_job
|1425>
|1426> # 5h2o.temelso.etal.dset.2h2o.dset-orca.engrad-mp2.def2tzvp
|1427> ! MP2 def2-TZVP EnGrad TightSCF FrozenCore
|1428>
|1429> %pal
|1430>     nprocs 12
|1431> end
|1432>
|1433> %maxcore 8000
|1434>
|1435> %scf
|1436>     ConvForced true
|1437> end
|1438>
|1439> *xyz 0 1
|1440> O  -1.355010263  -0.008095847  -0.061190128
|1441> H  -1.834910263   0.220904153   0.744309872
|1442> H  -0.392610263  -0.043395847   0.192509872
|1443> O   1.315389737   0.004504153   0.068009872
|1444> H   1.299789737   0.690804153  -0.623090128
|1445> H   1.556689737  -0.811295847  -0.421990128
|1446> *
|1447>
|1448>
|1449> $new_job
|1450>
|1451> # 5h2o.temelso.etal.dset.2h2o.dset-orca.engrad-mp2.def2tzvp
|1452> ! MP2 def2-TZVP EnGrad TightSCF FrozenCore
|1453>
|1454> %pal
|1455>     nprocs 12
|1456> end
|1457>
|1458> %maxcore 8000
|1459>
|1460> %scf
|1461>     ConvForced true
|1462> end
|1463>
|1464> *xyz 0 1
|1465> O  -0.715924908  -0.884484405   0.886695754
|1466> H  -1.195824908  -0.655484405   1.692195754
|1467> H   0.246475092  -0.919784405   1.140395754
|1468> O   0.738275092   0.843515595  -0.978804246
|1469> H   0.623775092   1.790715595  -0.830404246
|1470> H  -0.029224908   0.434915595  -0.540004246
|1471> *
|1472>
|1473>
|1474> $new_job
|1475>
|1476> # 5h2o.temelso.etal.dset.2h2o.dset-orca.engrad-mp2.def2tzvp
|1477> ! MP2 def2-TZVP EnGrad TightSCF FrozenCore
|1478>
|1479> %pal
|1480>     nprocs 12
|1481> end
|1482>
|1483> %maxcore 8000
|1484>
|1485> %scf
|1486>     ConvForced true
|1487> end
|1488>
|1489> *xyz 0 1
|1490> O   0.626458480  -0.869143630   1.013962984
|1491> H   0.610858480  -0.182843630   0.322862984
|1492> H   0.867758480  -1.684943630   0.523962984
|1493> O  -0.589741520   0.846256370  -0.980737016
|1494> H  -0.704241520   1.793456370  -0.832337016
|1495> H  -1.357241520   0.437656370  -0.541937016
|1496> *
|1497>
|1498>
|1499> $new_job
|1500>
|1501> # 5h2o.temelso.etal.dset.2h2o.dset-orca.engrad-mp2.def2tzvp
|1502> ! MP2 def2-TZVP EnGrad TightSCF FrozenCore
|1503>
|1504> %pal
|1505>     nprocs 12
|1506> end
|1507>
|1508> %maxcore 8000
|1509>
|1510> %scf
|1511>     ConvForced true
|1512> end
|1513>
|1514> *xyz 0 1
|1515> O   1.440958323  -0.017814411   0.164174051
|1516> H   0.490758323  -0.114414411  -0.058025949
|1517> H   1.644458323  -0.787114411   0.709874051
|1518> O  -1.358841677   0.040785589  -0.229025949
|1519> H  -1.511641677   0.981785589  -0.003625949
|1520> H  -1.927141677  -0.444914411   0.381274051
|1521> *
|1522>
|1523>
|1524> $new_job
|1525>
|1526> # 5h2o.temelso.etal.dset.2h2o.dset-orca.engrad-mp2.def2tzvp
|1527> ! MP2 def2-TZVP EnGrad TightSCF FrozenCore
|1528>
|1529> %pal
|1530>     nprocs 12
|1531> end
|1532>
|1533> %maxcore 8000
|1534>
|1535> %scf
|1536>     ConvForced true
|1537> end
|1538>
|1539> *xyz 0 1
|1540> O   1.410259361  -1.352668819  -0.292092212
|1541> H   0.460059361  -1.449268819  -0.514292212
|1542> H   1.613759361  -2.121968819   0.253607788
|1543> O  -1.387640639   1.387131181   0.212207788
|1544> H  -1.948340639   1.748631181   0.909707788
|1545> H  -0.484540639   1.275531181   0.619107788
|1546> *
|1547>
|1548>
|1549> $new_job
|1550>
|1551> # 5h2o.temelso.etal.dset.2h2o.dset-orca.engrad-mp2.def2tzvp
|1552> ! MP2 def2-TZVP EnGrad TightSCF FrozenCore
|1553>
|1554> %pal
|1555>     nprocs 12
|1556> end
|1557>
|1558> %maxcore 8000
|1559>
|1560> %scf
|1561>     ConvForced true
|1562> end
|1563>
|1564> *xyz 0 1
|1565> O   0.114377130  -1.243049957  -0.544882710
|1566> H  -0.835822870  -1.339649957  -0.767082710
|1567> H   0.317877130  -2.012349957   0.000817290
|1568> O  -0.097022870   1.305250043   0.587317290
|1569> H   0.095977130   1.936950043  -0.129282710
|1570> H   0.146477130   0.427650043   0.221917290
|1571> *
|1572>
|1573>
|1574> $new_job
|1575>
|1576> # 5h2o.temelso.etal.dset.2h2o.dset-orca.engrad-mp2.def2tzvp
|1577> ! MP2 def2-TZVP EnGrad TightSCF FrozenCore
|1578>
|1579> %pal
|1580>     nprocs 12
|1581> end
|1582>
|1583> %maxcore 8000
|1584>
|1585> %scf
|1586>     ConvForced true
|1587> end
|1588>
|1589> *xyz 0 1
|1590> O   0.466181195  -2.173811690   0.489385839
|1591> H  -0.484018805  -2.270411690   0.267185839
|1592> H   0.669681195  -2.943111690   1.035085839
|1593> O  -0.371918805   2.190388310  -0.533314161
|1594> H  -0.439918805   3.126888310  -0.307614161
|1595> H  -1.242118805   1.823488310  -0.297314161
|1596> *
|1597>
|1598>
|1599> $new_job
|1600>
|1601> # 5h2o.temelso.etal.dset.2h2o.dset-orca.engrad-mp2.def2tzvp
|1602> ! MP2 def2-TZVP EnGrad TightSCF FrozenCore
|1603>
|1604> %pal
|1605>     nprocs 12
|1606> end
|1607>
|1608> %maxcore 8000
|1609>
|1610> %scf
|1611>     ConvForced true
|1612> end
|1613>
|1614> *xyz 0 1
|1615> O   0.009643260  -1.360326345  -0.503019827
|1616> H  -0.143156740  -0.419326345  -0.277619827
|1617> H  -0.558656740  -1.846026345   0.107280173
|1618> O   0.011543260   1.320873655   0.394480173
|1619> H  -0.549156740   1.682373655   1.091980173
|1620> H   0.914643260   1.209273655   0.801380173
|1621> *
|1622>
|1623>
|1624> $new_job
|1625>
|1626> # 5h2o.temelso.etal.dset.2h2o.dset-orca.engrad-mp2.def2tzvp
|1627> ! MP2 def2-TZVP EnGrad TightSCF FrozenCore
|1628>
|1629> %pal
|1630>     nprocs 12
|1631> end
|1632>
|1633> %maxcore 8000
|1634>
|1635> %scf
|1636>     ConvForced true
|1637> end
|1638>
|1639> *xyz 0 1
|1640> O  -1.286238971  -1.250707482  -0.755810325
|1641> H  -1.439038971  -0.309707482  -0.530410325
|1642> H  -1.854538971  -1.736407482  -0.145510325
|1643> O   1.302161029   1.238992518   0.769589675
|1644> H   1.495161029   1.870692518   0.052989675
|1645> H   1.545661029   0.361392518   0.404189675
|1646> *
|1647>
|1648>
|1649> $new_job
|1650>
|1651> # 5h2o.temelso.etal.dset.2h2o.dset-orca.engrad-mp2.def2tzvp
|1652> ! MP2 def2-TZVP EnGrad TightSCF FrozenCore
|1653>
|1654> %pal
|1655>     nprocs 12
|1656> end
|1657>
|1658> %maxcore 8000
|1659>
|1660> %scf
|1661>     ConvForced true
|1662> end
|1663>
|1664> *xyz 0 1
|1665> O  -0.934434906  -2.181469216   0.278458225
|1666> H  -1.087234906  -1.240469216   0.503858225
|1667> H  -1.502734906  -2.667169216   0.888758225
|1668> O   1.027265094   2.124130784  -0.351041775
|1669> H   0.959265094   3.060630784  -0.125341775
|1670> H   0.157065094   1.757230784  -0.115041775
|1671> *
|1672>
|1673>
|1674> $new_job
|1675>
|1676> # 5h2o.temelso.etal.dset.2h2o.dset-orca.engrad-mp2.def2tzvp
|1677> ! MP2 def2-TZVP EnGrad TightSCF FrozenCore
|1678>
|1679> %pal
|1680>     nprocs 12
|1681> end
|1682>
|1683> %maxcore 8000
|1684>
|1685> %scf
|1686>     ConvForced true
|1687> end
|1688>
|1689> *xyz 0 1
|1690> O  -1.315037933   0.095638109  -0.314576588
|1691> H  -1.875737933   0.457138109   0.382923412
|1692> H  -0.411937933  -0.015961891   0.092323412
|1693> O   1.271462067  -0.095861891   0.313323412
|1694> H   1.464462067   0.535838109  -0.403276588
|1695> H   1.514962067  -0.973461891  -0.052076588
|1696> *
|1697>
|1698>
|1699> $new_job
|1700>
|1701> # 5h2o.temelso.etal.dset.2h2o.dset-orca.engrad-mp2.def2tzvp
|1702> ! MP2 def2-TZVP EnGrad TightSCF FrozenCore
|1703>
|1704> %pal
|1705>     nprocs 12
|1706> end
|1707>
|1708> %maxcore 8000
|1709>
|1710> %scf
|1711>     ConvForced true
|1712> end
|1713>
|1714> *xyz 0 1
|1715> O  -0.963233868  -0.835123624   0.719691961
|1716> H  -1.523933868  -0.473623624   1.417191961
|1717> H  -0.060133868  -0.946723624   1.126591961
|1718> O   0.996566132   0.789276376  -0.807308039
|1719> H   0.928566132   1.725776376  -0.581608039
|1720> H   0.126366132   0.422376376  -0.571308039
|1721> *
|1722>
|1723>
|1724> $new_job
|1725>
|1726> # 5h2o.temelso.etal.dset.2h2o.dset-orca.engrad-mp2.def2tzvp
|1727> ! MP2 def2-TZVP EnGrad TightSCF FrozenCore
|1728>
|1729> %pal
|1730>     nprocs 12
|1731> end
|1732>
|1733> %maxcore 8000
|1734>
|1735> %scf
|1736>     ConvForced true
|1737> end
|1738>
|1739> *xyz 0 1
|1740> O   0.327383901  -0.917004762   1.094801463
|1741> H   0.520383901  -0.285304762   0.378201463
|1742> H   0.570883901  -1.794604762   0.729401463
|1743> O  -0.299316099   0.898895238  -1.060098537
|1744> H  -0.367316099   1.835395238  -0.834398537
|1745> H  -1.169516099   0.531995238  -0.824098537
|1746> *
|1747>
|1748>                          ****END OF INPUT****
 Total Charge           Charge          ....    0
 Multiplicity           Mult            ....    1
 Number of Electrons    NEL             ....   20
MP2 TOTAL ENERGY:     -152.633464898 Eh
FINAL SINGLE POINT ENERGY      -152.633464898191
MP2 TOTAL ENERGY:     -152.627171922 Eh
FINAL SINGLE POINT ENERGY      -152.627171922201
MP2 TOTAL ENERGY:     -152.626979637 Eh
FINAL SINGLE POINT ENERGY      -152.626979637452
MP2 TOTAL ENERGY:     -152.633434508 Eh
FINAL SINGLE POINT ENERGY      -152.633434508470
MP2 TOTAL ENERGY:     -152.632341463 Eh
FINAL SINGLE POINT ENERGY      -152.632341462623
MP2 TOTAL ENERGY:     -152.627190096 Eh
FINAL SINGLE POINT ENERGY      -152.627190095697
FINAL SINGLE POINT ENERGY      -152.626959088474
FINAL SINGLE POINT ENERGY      -152.633441299039
FINAL SINGLE POINT ENERGY      -152.626967810499
FINAL SINGLE POINT ENERGY      -152.633419970076
FINAL SINGLE POINT ENERGY      -152.633393858622
FINAL SINGLE POINT ENERGY      -152.627434321087
FINAL SINGLE POINT ENERGY      -152.633918975149
FINAL SINGLE POINT ENERGY      -152.624362633569
MP2 TOTAL ENERGY:     -152.632429136 Eh
FINAL SINGLE POINT ENERGY      -152.632429135772
MP2 TOTAL ENERGY:     -152.628486120 Eh
FINAL SINGLE POINT ENERGY      -152.628486119633
MP2 TOTAL ENERGY:     -152.624367879 Eh
FINAL SINGLE POINT ENERGY      -152.624367878916
MP2 TOTAL ENERGY:     -152.631958187 Eh
FINAL SINGLE POINT ENERGY      -152.631958186916
MP2 TOTAL ENERGY:     -152.632242855 Eh
FINAL SINGLE POINT ENERGY      -152.632242854634

CARTESIAN COORDINATES (ANGSTROEM)
---------------------------------
  O      0.327384   -0.917005    1.094801
  H      0.520384   -0.285305    0.378201
  H      0.570884   -1.794605    0.729401
  O     -0.299316    0.898895   -1.060099
  H     -0.367316    1.835395   -0.834399
  H     -1.169516    0.531995   -0.824099

 Multiplicity           Mult            ....    1
 Number of Electrons    NEL             ....   20
 Basis Dimension        Dim             ....   86

ORBITAL ENERGIES
----------------

  NO   OCC          E(Eh)            E(eV)
   0   2.0000     -20.582308      -560.0731
   1   2.0000     -20.541305      -558.9573
   2   2.0000      -1.365998       -37.1707
   3   2.0000      -1.319451       -35.9041
   4   2.0000      -0.729213       -19.8429
   5   2.0000      -0.688459       -18.7339
   6   2.0000      -0.603782       -16.4298
   7   2.0000      -0.560963       -15.2646
   8   2.0000      -0.525379       -14.2963
   9   2.0000      -0.486028       -13.2255
  10   0.0000       0.115910         3.1541
  11   0.0000       0.163203         4.4410
  12   0.0000       0.195044         5.3074
  13   0.0000       0.271967         7.4006
  14   0.0000       0.478938        13.0326

MULLIKEN ATOMIC CHARGES
-----------------------
   0 O :   -0.703894
   1 H :    0.355930
   2 H :    0.332581
   3 O :   -0.688832
   4 H :    0.349782
   5 H :    0.354434
Sum of atomic charges:   -0.0000000

LOEWDIN ATOMIC CHARGES
----------------------
   0 O :   -0.350352
   1 H :    0.151590
   2 H :    0.167117
   3 O :   -0.306662
   4 H :    0.166587
   5 H :    0.171720

  Mayer bond orders larger than 0.100000
B(  0-O ,  1-H ) :   0.8214 B(  0-O ,  2-H ) :   0.8536 B(  3-O ,  4-H ) :   0.8444
B(  3-O ,  5-H ) :   0.8367

MP2 TOTAL ENERGY:     -152.633722985 Eh
FINAL SINGLE POINT ENERGY      -152.633722984988

DIPOLE MOMENT
-------------
                                X             Y             Z
Electronic contribution:      0.02210       0.06413      -0.01241
Nuclear contribution   :     -0.41760       0.26944      -0.51631
                        -----------------------------------------
Total Dipole Moment    :     -0.39550       0.33356      -0.52872
                        -----------------------------------------
Magnitude (a.u.)       :      0.73975
Magnitude (Debye)      :      1.88028

Rotational constants in cm-1:     6.730048     0.220635     0.219372
Rotational constants in MHz : 201761.775187  6614.471471  6576.611742

                             ****ORCA TERMINATED NORMALLY****
TOTAL RUN TIME: 0 days 0 hours 7 minutes 7 seconds 201 msec
