                         Program Version 4.2.0 -  RELEASE  -
|  1> # 6h2o.temelso.etal.dset.2h2o-orca.engrad-mp2.augccpvtz-100.to.119
|  2> ! MP2 aug-cc-pVTZ EnGrad TightSCF FrozenCore
|  3>
|  4> %pal
|  5>     nprocs 12
|  6> end
|  7>
|  8> %maxcore 8000
|  9>
| 10> %scf
| 11>     ConvForced true
| 12> end
| 13>
| 14> *xyz 0 1
| 15> O   1.165294945  -0.765037525  -0.215443983
| 16> H   0.355994945  -0.215937525  -0.092543983
| 17> H   1.218594945  -0.925137525  -1.165043983
| 18> O  -1.061505055   0.726362475   0.280156017
| 19> H  -1.315705055   1.505662475  -0.227843983
| 20> H  -1.906505055   0.249362475   0.458156017
| 21> *
| 22>
| 23>
| 24> $new_job
| 25>
| 26> # 6h2o.temelso.etal.dset.2h2o-orca.engrad-mp2.augccpvtz-100.to.119
| 27> ! MP2 aug-cc-pVTZ EnGrad TightSCF FrozenCore
| 28>
| 29> %pal
| 30>     nprocs 12
| 31> end
| 32>
| 33> %maxcore 8000
| 34>
| 35> %scf
| 36>     ConvForced true
| 37> end
| 38>
| 39> *xyz 0 1
| 40> O   2.306081173  -0.062044811  -0.483898217
| 41> H   1.496781173   0.487055189  -0.360998217
| 42> H   2.359381173  -0.222144811  -1.433498217
| 43> O  -2.242918827   0.086655189   0.486801783
| 44> H  -2.171318827  -0.894744811   0.419001783
| 45> H  -2.687518827   0.239155189   1.329401783
| 46> *
| 47>
| 48>
| 49> $new_job
| 50>
| 51> # 6h2o.temelso.etal.dset.2h2o-orca.engrad-mp2.augccpvtz-100.to.119
| 52> ! MP2 aug-cc-pVTZ EnGrad TightSCF FrozenCore
| 53>
| 54> %pal
| 55>     nprocs 12
| 56> end
| 57>
| 58> %maxcore 8000
| 59>
| 60> %scf
| 61>     ConvForced true
| 62> end
| 63>
| 64> *xyz 0 1
| 65> O  -1.050245580  -2.014847239   0.168765924
| 66> H  -1.098245580  -2.399947239  -0.714234076
| 67> H  -0.239245580  -2.402247239   0.573265924
| 68> O   1.069054420   2.041152761  -0.123534076
| 69> H   0.814854420   2.820452761  -0.631534076
| 70> H   0.224054420   1.564152761   0.054465924
| 71> *
| 72>
| 73>
| 74> $new_job
| 75>
| 76> # 6h2o.temelso.etal.dset.2h2o-orca.engrad-mp2.augccpvtz-100.to.119
| 77> ! MP2 aug-cc-pVTZ EnGrad TightSCF FrozenCore
| 78>
| 79> %pal
| 80>     nprocs 12
| 81> end
| 82>
| 83> %maxcore 8000
| 84>
| 85> %scf
| 86>     ConvForced true
| 87> end
| 88>
| 89> *xyz 0 1
| 90> O   0.090540649  -1.311854525  -0.099688310
| 91> H   0.042540649  -1.696954525  -0.982688310
| 92> H   0.901540649  -1.699254525   0.304811690
| 93> O  -0.112359351   1.401445475   0.083111690
| 94> H  -0.040759351   0.420045475   0.015311690
| 95> H  -0.556959351   1.553945475   0.925711690
| 96> *
| 97>
| 98>
| 99> $new_job
|100>
|101> # 6h2o.temelso.etal.dset.2h2o-orca.engrad-mp2.augccpvtz-100.to.119
|102> ! MP2 aug-cc-pVTZ EnGrad TightSCF FrozenCore
|103>
|104> %pal
|105>     nprocs 12
|106> end
|107>
|108> %maxcore 8000
|109>
|110> %scf
|111>     ConvForced true
|112> end
|113>
|114> *xyz 0 1
|115> O   1.202281403   0.686080422  -0.249992255
|116> H   0.948081403   1.465380422  -0.757992255
|117> H   0.357281403   0.209080422  -0.071992255
|118> O  -1.119918597  -0.656619578   0.225107745
|119> H  -1.048318597  -1.638019578   0.157307745
|120> H  -1.564518597  -0.504119578   1.067707745
|121> *
|122>
|123>
|124> $new_job
|125>
|126> # 6h2o.temelso.etal.dset.2h2o-orca.engrad-mp2.augccpvtz-100.to.119
|127> ! MP2 aug-cc-pVTZ EnGrad TightSCF FrozenCore
|128>
|129> %pal
|130>     nprocs 12
|131> end
|132>
|133> %maxcore 8000
|134>
|135> %scf
|136>     ConvForced true
|137> end
|138>
|139> *xyz 0 1
|140> O  -0.018357566   1.402983708   0.157433481
|141> H  -0.132557566   1.544583708   1.105133481
|142> H  -0.039757566   0.424283708   0.046133481
|143> O   0.028942434  -1.303216292  -0.164566519
|144> H   0.744042434  -1.687216292  -0.723866519
|145> H  -0.739757566  -1.865416292  -0.314166519
|146> *
|147>
|148>
|149> $new_job
|150>
|151> # 6h2o.temelso.etal.dset.2h2o-orca.engrad-mp2.augccpvtz-100.to.119
|152> ! MP2 aug-cc-pVTZ EnGrad TightSCF FrozenCore
|153>
|154> %pal
|155>     nprocs 12
|156> end
|157>
|158> %maxcore 8000
|159>
|160> %scf
|161>     ConvForced true
|162> end
|163>
|164> *xyz 0 1
|165> O  -1.061245272   1.895403463   0.898772975
|166> H  -1.175445272   2.037003463   1.846472975
|167> H  -1.082645272   0.916703463   0.787472975
|168> O   1.017954728  -1.868896537  -0.907327025
|169> H   1.914754728  -1.565796537  -0.628227025
|170> H   1.030554728  -1.808696537  -1.869927025
|171> *
|172>
|173>
|174> $new_job
|175>
|176> # 6h2o.temelso.etal.dset.2h2o-orca.engrad-mp2.augccpvtz-100.to.119
|177> ! MP2 aug-cc-pVTZ EnGrad TightSCF FrozenCore
|178>
|179> %pal
|180>     nprocs 12
|181> end
|182>
|183> %maxcore 8000
|184>
|185> %scf
|186>     ConvForced true
|187> end
|188>
|189> *xyz 0 1
|190> O  -1.079838711  -0.544556320   0.528420414
|191> H  -1.194038711  -0.402956320   1.476120414
|192> H  -1.101238711  -1.523256320   0.417120414
|193> O   1.146861289   0.600943680  -0.546479586
|194> H   0.895261289   0.839243680  -1.446679586
|195> H   0.336061289   0.191843680  -0.159879586
|196> *
|197>
|198>
|199> $new_job
|200>
|201> # 6h2o.temelso.etal.dset.2h2o-orca.engrad-mp2.augccpvtz-100.to.119
|202> ! MP2 aug-cc-pVTZ EnGrad TightSCF FrozenCore
|203>
|204> %pal
|205>     nprocs 12
|206> end
|207>
|208> %maxcore 8000
|209>
|210> %scf
|211>     ConvForced true
|212> end
|213>
|214> *xyz 0 1
|215> O  -2.284017297   1.456969070   0.476781302
|216> H  -2.398217297   1.598569070   1.424481302
|217> H  -2.305417297   0.478269070   0.365481302
|218> O   2.270282703  -1.441130930  -0.578618698
|219> H   2.627582703  -1.854030930   0.216981302
|220> H   2.294082703  -0.474230930  -0.390318698
|221> *
|222>
|223>
|224> $new_job
|225>
|226> # 6h2o.temelso.etal.dset.2h2o-orca.engrad-mp2.augccpvtz-100.to.119
|227> ! MP2 aug-cc-pVTZ EnGrad TightSCF FrozenCore
|228>
|229> %pal
|230>     nprocs 12
|231> end
|232>
|233> %maxcore 8000
|234>
|235> %scf
|236>     ConvForced true
|237> end
|238>
|239> *xyz 0 1
|240> O  -2.253767333   0.104987577   0.246560191
|241> H  -2.367967333   0.246587577   1.194260191
|242> H  -2.275167333  -0.873712423   0.135260191
|243> O   2.266332667  -0.120512423  -0.271539809
|244> H   1.449632667   0.383587577  -0.496539809
|245> H   2.994032667   0.489987577  -0.436439809
|246> *
|247>
|248>
|249> $new_job
|250>
|251> # 6h2o.temelso.etal.dset.2h2o-orca.engrad-mp2.augccpvtz-100.to.119
|252> ! MP2 aug-cc-pVTZ EnGrad TightSCF FrozenCore
|253>
|254> %pal
|255>     nprocs 12
|256> end
|257>
|258> %maxcore 8000
|259>
|260> %scf
|261>     ConvForced true
|262> end
|263>
|264> *xyz 0 1
|265> O  -1.039889033   0.545355284   0.780999181
|266> H  -0.324789033   0.161355284   0.221699181
|267> H  -1.808589033  -0.016844716   0.631399181
|268> O   0.992010967  -0.512744716  -0.703100819
|269> H   1.888810967  -0.209644716  -0.424000819
|270> H   1.004610967  -0.452544716  -1.665700819
|271> *
|272>
|273>
|274> $new_job
|275>
|276> # 6h2o.temelso.etal.dset.2h2o-orca.engrad-mp2.augccpvtz-100.to.119
|277> ! MP2 aug-cc-pVTZ EnGrad TightSCF FrozenCore
|278>
|279> %pal
|280>     nprocs 12
|281> end
|282>
|283> %maxcore 8000
|284>
|285> %scf
|286>     ConvForced true
|287> end
|288>
|289> *xyz 0 1
|290> O  -1.058482472  -1.894604499   0.410646620
|291> H  -0.343382472  -2.278604499  -0.148653380
|292> H  -1.827182472  -2.456804499   0.261046620
|293> O   1.120917528   1.957095501  -0.342253380
|294> H   0.869317528   2.195395501  -1.242453380
|295> H   0.310117528   1.547995501   0.044346620
|296> *
|297>
|298>
|299> $new_job
|300>
|301> # 6h2o.temelso.etal.dset.2h2o-orca.engrad-mp2.augccpvtz-100.to.119
|302> ! MP2 aug-cc-pVTZ EnGrad TightSCF FrozenCore
|303>
|304> %pal
|305>     nprocs 12
|306> end
|307>
|308> %maxcore 8000
|309>
|310> %scf
|311>     ConvForced true
|312> end
|313>
|314> *xyz 0 1
|315> O  -2.262661058   0.106920891   0.359007509
|316> H  -1.547561058  -0.277079109  -0.200292491
|317> H  -3.031361058  -0.455279109   0.209407509
|318> O   2.244338942  -0.084979109  -0.374392491
|319> H   2.601638942  -0.497879109   0.421207509
|320> H   2.268138942   0.881920891  -0.186092491
|321> *
|322>
|323>
|324> $new_job
|325>
|326> # 6h2o.temelso.etal.dset.2h2o-orca.engrad-mp2.augccpvtz-100.to.119
|327> ! MP2 aug-cc-pVTZ EnGrad TightSCF FrozenCore
|328>
|329> %pal
|330>     nprocs 12
|331> end
|332>
|333> %maxcore 8000
|334>
|335> %scf
|336>     ConvForced true
|337> end
|338>
|339> *xyz 0 1
|340> O  -2.232411094  -1.245060602   0.128786398
|341> H  -1.517311094  -1.629060602  -0.430513602
|342> H  -3.001111094  -1.807260602  -0.020813602
|343> O   2.240388906   1.235639398  -0.067313602
|344> H   1.423688906   1.739739398  -0.292313602
|345> H   2.968088906   1.846139398  -0.232213602
|346> *
|347>
|348>
|349> $new_job
|350>
|351> # 6h2o.temelso.etal.dset.2h2o-orca.engrad-mp2.augccpvtz-100.to.119
|352> ! MP2 aug-cc-pVTZ EnGrad TightSCF FrozenCore
|353>
|354> %pal
|355>     nprocs 12
|356> end
|357>
|358> %maxcore 8000
|359>
|360> %scf
|361>     ConvForced true
|362> end
|363>
|364> *xyz 0 1
|365> O  -0.069470178  -2.460284744  -0.332113886
|366> H   0.827329822  -2.157184744  -0.053013886
|367> H  -0.056870178  -2.400084744  -1.294713886
|368> O   0.078029822   2.449515256   0.399086114
|369> H  -0.173570178   2.687815256  -0.501113886
|370> H  -0.732770178   2.040415256   0.785686114
|371> *
|372>
|373>
|374> $new_job
|375>
|376> # 6h2o.temelso.etal.dset.2h2o-orca.engrad-mp2.augccpvtz-100.to.119
|377> ! MP2 aug-cc-pVTZ EnGrad TightSCF FrozenCore
|378>
|379> %pal
|380>     nprocs 12
|381> end
|382>
|383> %maxcore 8000
|384>
|385> %scf
|386>     ConvForced true
|387> end
|388>
|389> *xyz 0 1
|390> O  -1.273648764  -0.458759354  -0.383752998
|391> H  -0.376848764  -0.155659354  -0.104652998
|392> H  -1.261048764  -0.398559354  -1.346352998
|393> O   1.201451236   0.407440646   0.366947002
|394> H   1.558751236  -0.005459354   1.162547002
|395> H   1.225251236   1.374340646   0.555247002
|396> *
|397>
|398>
|399> $new_job
|400>
|401> # 6h2o.temelso.etal.dset.2h2o-orca.engrad-mp2.augccpvtz-100.to.119
|402> ! MP2 aug-cc-pVTZ EnGrad TightSCF FrozenCore
|403>
|404> %pal
|405>     nprocs 12
|406> end
|407>
|408> %maxcore 8000
|409>
|410> %scf
|411>     ConvForced true
|412> end
|413>
|414> *xyz 0 1
|415> O  -1.243398800  -1.810740847  -0.613974108
|416> H  -0.346598800  -1.507640847  -0.334874108
|417> H  -1.230798800  -1.750540847  -1.576574108
|418> O   1.197501200   1.728059153   0.674025892
|419> H   0.380801200   2.232159153   0.449025892
|420> H   1.925201200   2.338559153   0.509125892
|421> *
|422>
|423>
|424> $new_job
|425>
|426> # 6h2o.temelso.etal.dset.2h2o-orca.engrad-mp2.augccpvtz-100.to.119
|427> ! MP2 aug-cc-pVTZ EnGrad TightSCF FrozenCore
|428>
|429> %pal
|430>     nprocs 12
|431> end
|432>
|433> %maxcore 8000
|434>
|435> %scf
|436>     ConvForced true
|437> end
|438>
|439> *xyz 0 1
|440> O  -1.144742202   2.011080863  -0.022905559
|441> H  -1.396342202   2.249380863  -0.923105559
|442> H  -1.955542202   1.601980863   0.363694441
|443> O   1.182857798  -2.032519137  -0.003405559
|444> H   1.540157798  -2.445419137   0.792194441
|445> H   1.206657798  -1.065619137   0.184894441
|446> *
|447>
|448>
|449> $new_job
|450>
|451> # 6h2o.temelso.etal.dset.2h2o-orca.engrad-mp2.augccpvtz-100.to.119
|452> ! MP2 aug-cc-pVTZ EnGrad TightSCF FrozenCore
|453>
|454> %pal
|455>     nprocs 12
|456> end
|457>
|458> %maxcore 8000
|459>
|460> %scf
|461>     ConvForced true
|462> end
|463>
|464> *xyz 0 1
|465> O  -1.114492238   0.659099370  -0.253126669
|466> H  -1.366092238   0.897399370  -1.153326669
|467> H  -1.925292238   0.249999370   0.133473331
|468> O   1.178907762  -0.711900630   0.303673331
|469> H   0.362207762  -0.207800630   0.078673331
|470> H   1.906607762  -0.101400630   0.138773331
|471> *
|472>
|473>
|474> $new_job
|475>
|476> # 6h2o.temelso.etal.dset.2h2o-orca.engrad-mp2.augccpvtz-100.to.119
|477> ! MP2 aug-cc-pVTZ EnGrad TightSCF FrozenCore
|478>
|479> %pal
|480>     nprocs 12
|481> end
|482>
|483> %maxcore 8000
|484>
|485> %scf
|486>     ConvForced true
|487> end
|488>
|489> *xyz 0 1
|490> O   0.008929176  -1.382975240  -0.285265781
|491> H   0.366229176  -1.795875240   0.510334219
|492> H   0.032729176  -0.416075240  -0.096965781
|493> O  -0.025270824   1.289624760   0.252034219
|494> H  -0.841970824   1.793724760   0.027034219
|495> H   0.702429176   1.900124760   0.087134219
|496> *
|497>
|498>                          ****END OF INPUT****
 Total Charge           Charge          ....    0
 Multiplicity           Mult            ....    1
 Number of Electrons    NEL             ....   20
MP2 TOTAL ENERGY:     -152.663590266 Eh
FINAL SINGLE POINT ENERGY      -152.663590266013
MP2 TOTAL ENERGY:     -152.658309846 Eh
FINAL SINGLE POINT ENERGY      -152.658309845724
MP2 TOTAL ENERGY:     -152.658311914 Eh
FINAL SINGLE POINT ENERGY      -152.658311913942
MP2 TOTAL ENERGY:     -152.664236232 Eh
FINAL SINGLE POINT ENERGY      -152.664236232407
MP2 TOTAL ENERGY:     -152.664277913 Eh
FINAL SINGLE POINT ENERGY      -152.664277913151
MP2 TOTAL ENERGY:     -152.664200599 Eh
FINAL SINGLE POINT ENERGY      -152.664200598848
FINAL SINGLE POINT ENERGY      -152.658245337831
FINAL SINGLE POINT ENERGY      -152.664269042755
FINAL SINGLE POINT ENERGY      -152.657298435877
FINAL SINGLE POINT ENERGY      -152.658435210705
FINAL SINGLE POINT ENERGY      -152.664012041428
FINAL SINGLE POINT ENERGY      -152.658265758337
FINAL SINGLE POINT ENERGY      -152.658414161746
FINAL SINGLE POINT ENERGY      -152.657261717616
MP2 TOTAL ENERGY:     -152.657436368 Eh
FINAL SINGLE POINT ENERGY      -152.657436367639
MP2 TOTAL ENERGY:     -152.664262677 Eh
FINAL SINGLE POINT ENERGY      -152.664262677166
MP2 TOTAL ENERGY:     -152.658276707 Eh
FINAL SINGLE POINT ENERGY      -152.658276707430
MP2 TOTAL ENERGY:     -152.658233471 Eh
FINAL SINGLE POINT ENERGY      -152.658233470645
MP2 TOTAL ENERGY:     -152.663982487 Eh
FINAL SINGLE POINT ENERGY      -152.663982486618

CARTESIAN COORDINATES (ANGSTROEM)
---------------------------------
  O      0.008929   -1.382975   -0.285266
  H      0.366229   -1.795875    0.510334
  H      0.032729   -0.416075   -0.096966
  O     -0.025271    1.289625    0.252034
  H     -0.841971    1.793725    0.027034
  H      0.702429    1.900125    0.087134

 Multiplicity           Mult            ....    1
 Number of Electrons    NEL             ....   20
 Basis Dimension        Dim             ....  184

ORBITAL ENERGIES
----------------

  NO   OCC          E(Eh)            E(eV)
   0   2.0000     -20.600873      -560.5783
   1   2.0000     -20.524687      -558.5051
   2   2.0000      -1.380664       -37.5698
   3   2.0000      -1.304410       -35.4948
   4   2.0000      -0.742651       -20.2086
   5   2.0000      -0.691517       -18.8171
   6   2.0000      -0.613620       -16.6974
   7   2.0000      -0.548530       -14.9263
   8   2.0000      -0.528575       -14.3832
   9   2.0000      -0.468619       -12.7518
  10   0.0000       0.019829         0.5396
  11   0.0000       0.043258         1.1771
  12   0.0000       0.049365         1.3433
  13   0.0000       0.074902         2.0382
  14   0.0000       0.128280         3.4907

MULLIKEN ATOMIC CHARGES
-----------------------
   0 O :   -0.504836
   1 H :    0.194176
   2 H :    0.257081
   3 O :   -0.386722
   4 H :    0.229482
   5 H :    0.210818
Sum of atomic charges:    0.0000000

LOEWDIN ATOMIC CHARGES
----------------------
   0 O :    1.017300
   1 H :   -0.515056
   2 H :   -0.736006
   3 O :    1.093595
   4 H :   -0.407011
   5 H :   -0.452821

  Mayer bond orders larger than 0.100000
B(  0-O ,  1-H ) :   0.9771 B(  0-O ,  2-H ) :   0.8834 B(  3-O ,  4-H ) :   0.9500
B(  3-O ,  5-H ) :   0.9657

MP2 TOTAL ENERGY:     -152.664201109 Eh
FINAL SINGLE POINT ENERGY      -152.664201108825

DIPOLE MOMENT
-------------
                                X             Y             Z
Electronic contribution:     -0.07716      -0.03524      -0.09486
Nuclear contribution   :      0.24313       1.38888       0.49442
                        -----------------------------------------
Total Dipole Moment    :      0.16598       1.35363       0.39956
                        -----------------------------------------
Magnitude (a.u.)       :      1.42110
Magnitude (Debye)      :      3.61215

Rotational constants in cm-1:     7.805302     0.240886     0.238075
Rotational constants in MHz : 233997.074160  7221.579520  7137.322361

                             ****ORCA TERMINATED NORMALLY****
TOTAL RUN TIME: 0 days 0 hours 6 minutes 45 seconds 705 msec
