                         Program Version 4.2.0 -  RELEASE  -
|  1> # 48mecn.sphere.gfn2.md.500k.prod1.3mecn.cm.17.dset.2mecn-orca.engrad-mp2.def2tzvp-14800.to.14847
|  2> ! MP2 def2-TZVP EnGrad TightSCF FrozenCore
|  3>
|  4> %pal
|  5>     nprocs 12
|  6> end
|  7>
|  8> %maxcore 8000
|  9>
| 10> %scf
| 11>     ConvForced true
| 12> end
| 13>
| 14> *xyz 0 1
| 15> C  -4.384802701  -0.268604924  -3.887649991
| 16> H  -4.850571815  -1.222814588  -3.678386012
| 17> H  -3.263915577  -0.105447209  -3.828830261
| 18> H  -4.835221237   0.037176589  -4.852062046
| 19> C  -5.019538668   0.478414125  -2.834481856
| 20> N  -5.621262778   0.946833727  -1.958769287
| 21> C   3.734198376  -0.659050805   2.883620904
| 22> H   3.032841442   0.184478374   2.917727060
| 23> H   3.589498526  -1.033925044   3.909515282
| 24> H   3.527934800  -1.195339190   1.977580246
| 25> C   5.141139650  -0.254675536   3.026283469
| 26> N   6.276283363  -0.103236352   2.910964081
| 27> *
| 28>
| 29>
| 30> $new_job
| 31>
| 32> # 48mecn.sphere.gfn2.md.500k.prod1.3mecn.cm.17.dset.2mecn-orca.engrad-mp2.def2tzvp-14800.to.14847
| 33> ! MP2 def2-TZVP EnGrad TightSCF FrozenCore
| 34>
| 35> %pal
| 36>     nprocs 12
| 37> end
| 38>
| 39> %maxcore 8000
| 40>
| 41> %scf
| 42>     ConvForced true
| 43> end
| 44>
| 45> *xyz 0 1
| 46> C  -2.047362988   2.144657030  -0.764302128
| 47> H  -2.150912393   3.313218789  -0.875097974
| 48> H  -0.964538926   1.703583775  -0.603348593
| 49> H  -2.799650829   1.769858345   0.046885375
| 50> C  -2.505114222   1.427211040  -1.923571048
| 51> N  -3.047855866   0.925677918  -2.794085406
| 52> C   1.263917034  -1.833782571   1.720054141
| 53> H   0.562560100  -0.990253392   1.754160296
| 54> H   1.119217183  -2.208656810   2.745948519
| 55> H   1.057653457  -2.370070956   0.814013482
| 56> C   2.670858308  -1.429407302   1.862716706
| 57> N   3.806002021  -1.277968119   1.747397317
| 58> *
| 59>
| 60>
| 61> $new_job
| 62>
| 63> # 48mecn.sphere.gfn2.md.500k.prod1.3mecn.cm.17.dset.2mecn-orca.engrad-mp2.def2tzvp-14800.to.14847
| 64> ! MP2 def2-TZVP EnGrad TightSCF FrozenCore
| 65>
| 66> %pal
| 67>     nprocs 12
| 68> end
| 69>
| 70> %maxcore 8000
| 71>
| 72> %scf
| 73>     ConvForced true
| 74> end
| 75>
| 76> *xyz 0 1
| 77> C   0.439020856  -0.193829224  -4.491558446
| 78> H   1.283146324  -0.377807422  -5.338394936
| 79> H  -0.497372131  -0.001438585  -5.030180875
| 80> H   0.377670843  -1.218148260  -3.964631274
| 81> C   0.859617514   0.951270937  -3.769423655
| 82> N   1.405465091   1.789396179  -3.227914192
| 83> C   0.009519892  -0.491008551   4.715989509
| 84> H   0.159803548  -1.300587400   5.529153538
| 85> H  -0.121146865   0.438179435   5.313205645
| 86> H   0.794154627  -0.390736776   3.973721108
| 87> C  -1.034506036  -0.950224047   3.817145649
| 88> N  -1.783745693  -0.997978078   2.959815305
| 89> *
| 90>
| 91>
| 92> $new_job
| 93>
| 94> # 48mecn.sphere.gfn2.md.500k.prod1.3mecn.cm.17.dset.2mecn-orca.engrad-mp2.def2tzvp-14800.to.14847
| 95> ! MP2 def2-TZVP EnGrad TightSCF FrozenCore
| 96>
| 97> %pal
| 98>     nprocs 12
| 99> end
|100>
|101> %maxcore 8000
|102>
|103> %scf
|104>     ConvForced true
|105> end
|106>
|107> *xyz 0 1
|108> C  -0.554387977   1.796599275   2.250686998
|109> H   0.289737490   1.612621077   1.403850508
|110> H  -1.490780965   1.988989914   1.712064569
|111> H  -0.615737991   0.772280239   2.777614170
|112> C  -0.133791320   2.941699436   2.972821789
|113> N   0.412056257   3.779824678   3.514331253
|114> C  -0.542504649  -3.923627791  -2.747907937
|115> H  -0.302613485  -4.488815192  -1.846060534
|116> H  -0.196054437  -4.636829881  -3.611602006
|117> H  -1.683475797  -3.735177393  -2.879118035
|118> C   0.185518195  -2.621775700  -2.850657557
|119> N   0.771849946  -1.619668640  -3.016939166
|120> *
|121>
|122>
|123> $new_job
|124>
|125> # 48mecn.sphere.gfn2.md.500k.prod1.3mecn.cm.17.dset.2mecn-orca.engrad-mp2.def2tzvp-14800.to.14847
|126> ! MP2 def2-TZVP EnGrad TightSCF FrozenCore
|127>
|128> %pal
|129>     nprocs 12
|130> end
|131>
|132> %maxcore 8000
|133>
|134> %scf
|135>     ConvForced true
|136> end
|137>
|138> *xyz 0 1
|139> C  -0.095825676   2.292364662   7.588039730
|140> H   0.054457980   1.482785813   8.401203759
|141> H  -0.226492432   3.221552647   8.185255866
|142> H   0.688809060   2.392636437   6.845771329
|143> C  -1.139851603   1.833149166   6.689195870
|144> N  -1.889091261   1.785395135   5.831865526
|145> C   0.345558617  -3.130683077  -6.618103160
|146> H   0.585449782  -3.695870479  -5.716255757
|147> H   0.692008829  -3.843885168  -7.481797229
|148> H  -0.795412531  -2.942232680  -6.749313258
|149> C   1.073581462  -1.828830986  -6.720852780
|150> N   1.659913213  -0.826723927  -6.887134389
|151> *
|152>
|153>
|154> $new_job
|155>
|156> # 48mecn.sphere.gfn2.md.500k.prod1.3mecn.cm.17.dset.2mecn-orca.engrad-mp2.def2tzvp-14800.to.14847
|157> ! MP2 def2-TZVP EnGrad TightSCF FrozenCore
|158>
|159> %pal
|160>     nprocs 12
|161> end
|162>
|163> %maxcore 8000
|164>
|165> %scf
|166>     ConvForced true
|167> end
|168>
|169> *xyz 0 1
|170> C   2.439512989  -0.724387859  -4.630021351
|171> H   2.111340021  -1.680648427  -5.011874919
|172> H   2.624911743  -0.873167286  -3.510103637
|173> H   3.426988826  -0.579972922  -5.112159991
|174> C   1.481770815   0.311711031  -4.935108719
|175> N   0.910048714   1.252432460  -5.256756540
|176> C  -0.977430915   0.470469467   5.769799364
|177> H  -1.876747443   0.811160632   6.386366702
|178> H  -0.518981489   1.257627249   5.298770547
|179> H  -0.210064347  -0.075113633   6.191988435
|180> C  -1.749831087  -0.321084202   4.818925643
|181> N  -2.333733545  -0.944639594   4.073784297
|182> *
|183>
|184>
|185> $new_job
|186>
|187> # 48mecn.sphere.gfn2.md.500k.prod1.3mecn.cm.17.dset.2mecn-orca.engrad-mp2.def2tzvp-14800.to.14847
|188> ! MP2 def2-TZVP EnGrad TightSCF FrozenCore
|189>
|190> %pal
|191>     nprocs 12
|192> end
|193>
|194> %maxcore 8000
|195>
|196> %scf
|197>     ConvForced true
|198> end
|199>
|200> *xyz 0 1
|201> C  -0.368678300  -4.005227213  -3.139233140
|202> H  -0.696851267  -4.961487781  -3.521086708
|203> H  -0.183279546  -4.154006641  -2.019315426
|204> H   0.618797537  -3.860812277  -3.621371780
|205> C  -1.326420473  -2.969128323  -3.444320508
|206> N  -1.898142575  -2.028406895  -3.765968329
|207> C   0.418494694   4.047181091   3.665076327
|208> H   0.105216283   3.972853403   4.779571625
|209> H  -0.400664849   3.854701753   3.097574324
|210> H   0.849173214   5.033236650   3.446828570
|211> C   1.285923040   2.949591057   3.421317881
|212> N   1.869113000   2.017498047   3.179233077
|213> *
|214>
|215>
|216> $new_job
|217>
|218> # 48mecn.sphere.gfn2.md.500k.prod1.3mecn.cm.17.dset.2mecn-orca.engrad-mp2.def2tzvp-14800.to.14847
|219> ! MP2 def2-TZVP EnGrad TightSCF FrozenCore
|220>
|221> %pal
|222>     nprocs 12
|223> end
|224>
|225> %maxcore 8000
|226>
|227> %scf
|228>     ConvForced true
|229> end
|230>
|231> *xyz 0 1
|232> C  -2.127443557  -2.580702125   2.333742347
|233> H  -3.026760085  -2.240010960   2.950309685
|234> H  -1.668994131  -1.793544344   1.862713530
|235> H  -1.360076989  -3.126285225   2.755931418
|236> C  -2.899843729  -3.372255794   1.382868626
|237> N  -3.483746187  -3.995811186   0.637727280
|238> C   2.076673340   4.276848853  -1.261768901
|239> H   1.763394930   4.202521165  -0.147273603
|240> H   1.257513797   4.084369515  -1.829270904
|241> H   2.507351860   5.262904412  -1.480016658
|242> C   2.944101686   3.179258819  -1.505527347
|243> N   3.527291646   2.247165809  -1.747612151
|244> *
|245>
|246>
|247> $new_job
|248>
|249> # 48mecn.sphere.gfn2.md.500k.prod1.3mecn.cm.17.dset.2mecn-orca.engrad-mp2.def2tzvp-14800.to.14847
|250> ! MP2 def2-TZVP EnGrad TightSCF FrozenCore
|251>
|252> %pal
|253>     nprocs 12
|254> end
|255>
|256> %maxcore 8000
|257>
|258> %scf
|259>     ConvForced true
|260> end
|261>
|262> *xyz 0 1
|263> C  -1.569331965  -1.086814155  -3.573244407
|264> H  -2.123078005  -1.737340555  -4.252737025
|265> H  -0.733117276  -1.630109510  -3.090621867
|266> H  -0.972970420  -0.676877770  -4.379828273
|267> C  -2.225279144  -0.171616433  -2.748336718
|268> N  -2.674451261   0.697662296  -2.163818015
|269> C   3.027543575   0.535375260   3.726452588
|270> H   2.741186071   1.157777992   4.536729577
|271> H   3.752552336   1.143977924   3.191321337
|272> H   3.483691183  -0.333462280   4.115529172
|273> C   1.997242669   0.198330132   2.748789285
|274> N   1.177254789  -0.098362544   2.023401012
|275> *
|276>
|277>
|278> $new_job
|279>
|280> # 48mecn.sphere.gfn2.md.500k.prod1.3mecn.cm.17.dset.2mecn-orca.engrad-mp2.def2tzvp-14800.to.14847
|281> ! MP2 def2-TZVP EnGrad TightSCF FrozenCore
|282>
|283> %pal
|284>     nprocs 12
|285> end
|286>
|287> %maxcore 8000
|288>
|289> %scf
|290>     ConvForced true
|291> end
|292>
|293> *xyz 0 1
|294> C  -2.202944381   0.845888962  -4.049731971
|295> H  -2.756690420   0.195362562  -4.729224589
|296> H  -1.366729692   0.302593607  -3.567109432
|297> H  -1.606582836   1.255825348  -4.856315837
|298> C  -2.858891560   1.761086685  -3.224824282
|299> N  -3.308063676   2.630365413  -2.640305579
|300> C   1.521899458  -1.279930908   3.107338321
|301> H   1.597677513  -0.361794084   2.454489207
|302> H   1.135279885  -1.192694364   4.121050010
|303> H   1.022034293  -2.252544540   2.717050646
|304> C   2.908701928  -1.744414815   3.398447650
|305> N   3.991419097  -2.124755016   3.577228582
|306> *
|307>
|308>
|309> $new_job
|310>
|311> # 48mecn.sphere.gfn2.md.500k.prod1.3mecn.cm.17.dset.2mecn-orca.engrad-mp2.def2tzvp-14800.to.14847
|312> ! MP2 def2-TZVP EnGrad TightSCF FrozenCore
|313>
|314> %pal
|315>     nprocs 12
|316> end
|317>
|318> %maxcore 8000
|319>
|320> %scf
|321>     ConvForced true
|322> end
|323>
|324> *xyz 0 1
|325> C   0.277189100   2.238657665   0.374336097
|326> H  -0.009168404   2.861060397   1.184613085
|327> H   1.002197860   2.847260328  -0.160795154
|328> H   0.733336708   1.369820125   0.763412681
|329> C  -0.753111807   1.901612537  -0.603327207
|330> N  -1.573099686   1.604919861  -1.328715480
|331> C  -0.594842601  -1.509351621   0.231709393
|332> H  -0.519064546  -0.591214796  -0.421139720
|333> H  -0.981462175  -1.422115076   1.245421082
|334> H  -1.094707767  -2.481965253  -0.158578282
|335> C   0.791959869  -1.973835528   0.522818722
|336> N   1.874677037  -2.354175729   0.701599654
|337> *
|338>
|339>
|340> $new_job
|341>
|342> # 48mecn.sphere.gfn2.md.500k.prod1.3mecn.cm.17.dset.2mecn-orca.engrad-mp2.def2tzvp-14800.to.14847
|343> ! MP2 def2-TZVP EnGrad TightSCF FrozenCore
|344>
|345> %pal
|346>     nprocs 12
|347> end
|348>
|349> %maxcore 8000
|350>
|351> %scf
|352>     ConvForced true
|353> end
|354>
|355> *xyz 0 1
|356> C   1.500184394  -3.680231054  -0.269308550
|357> H   0.966662142  -2.801200727  -0.725697043
|358> H   1.721067405  -3.618432271   0.836800112
|359> H   0.720611951  -4.416554018  -0.255849522
|360> C   2.756605863  -3.840532263  -0.955702757
|361> N   3.833995964  -3.751215587  -1.331427663
|362> C  -2.042492683   2.997045893  -0.077002066
|363> H  -2.004986463   3.531466621  -1.116492747
|364> H  -2.672390801   2.006603532  -0.211772511
|365> H  -1.071054725   2.586523365   0.112284522
|366> C  -2.709382749   3.873841354   0.949801181
|367> N  -3.241110288   4.503556051   1.731338476
|368> *
|369>
|370>
|371> $new_job
|372>
|373> # 48mecn.sphere.gfn2.md.500k.prod1.3mecn.cm.17.dset.2mecn-orca.engrad-mp2.def2tzvp-14800.to.14847
|374> ! MP2 def2-TZVP EnGrad TightSCF FrozenCore
|375>
|376> %pal
|377>     nprocs 12
|378> end
|379>
|380> %maxcore 8000
|381>
|382> %scf
|383>     ConvForced true
|384> end
|385>
|386> *xyz 0 1
|387> C   3.310893648  -0.165102606   0.329646977
|388> H   2.777371396   0.713927721  -0.126741516
|389> H   3.531776658  -0.103303823   1.435755639
|390> H   2.531321204  -0.901425570   0.343106004
|391> C   4.567315117  -0.325403815  -0.356747230
|392> N   5.644705217  -0.236087139  -0.732472136
|393> C  -4.445771917   0.903587289   1.277497389
|394> H  -3.445170230   1.328351974   1.217363452
|395> H  -4.661975933   0.288181757   2.173119027
|396> H  -5.111232532   1.812442482   1.146681407
|397> C  -4.587919978   0.164021740   0.058775039
|398> N  -4.338939048  -0.484549691  -0.835410768
|399> *
|400>
|1087> ! MP2 def2-TZVP EnGrad TightSCF FrozenCore
|1088>
|1089> %pal
|1090>     nprocs 12
|1091> end
|1092>
|1093> %maxcore 8000
|1094>
|1095> %scf
|1096>     ConvForced true
|1097> end
|1098>
|1099> *xyz 0 1
|1100> C  -0.781793070  -3.555555614  -1.145310412
|1101> H  -0.240765470  -2.673064536  -1.335093005
|1102> H  -1.132067292  -4.002326924  -2.161859135
|1103> H  -0.225835952  -4.358328252  -0.740789180
|1104> C  -1.840827446  -3.133688187  -0.378763580
|1105> N  -2.487419844  -2.537052957   0.381002843
|1106> C   1.448366415   4.311410747   0.531352831
|1107> H   0.444705730   4.551879589   0.106544750
|1108> H   2.172148103   4.756303123  -0.278115168
|1109> H   1.593239225   4.900426300   1.433549203
|1110> C   1.653616188   2.944249618   0.437614874
|1111> N   1.888491720   1.822936883   0.309087135
|1112> *
|1113>
|1114>
|1115> $new_job
|1116>
|1117> # 48mecn.sphere.gfn2.md.500k.prod1.3mecn.cm.17.dset.2mecn-orca.engrad-mp2.def2tzvp-14800.to.14847
|1118> ! MP2 def2-TZVP EnGrad TightSCF FrozenCore
|1119>
|1120> %pal
|1121>     nprocs 12
|1122> end
|1123>
|1124> %maxcore 8000
|1125>
|1126> %scf
|1127>     ConvForced true
|1128> end
|1129>
|1130> *xyz 0 1
|1131> C  -4.484439431  -1.760124914  -2.235609414
|1132> H  -3.943411831  -0.877633836  -2.425392008
|1133> H  -4.834713653  -2.206896225  -3.252158138
|1134> H  -3.928482313  -2.562897552  -1.831088183
|1135> C  -5.543473807  -1.338257487  -1.469062582
|1136> N  -6.190066205  -0.741622257  -0.709296160
|1137> C   4.622473901   2.280539635   1.799144652
|1138> H   4.344578806   2.426151579   2.842584390
|1139> H   3.744759755   2.110505855   1.031631118
|1140> H   5.086206060   3.219323129   1.544296064
|1141> C   5.475252016   1.210152873   1.456528175
|1142> N   6.096463792   0.253519903   1.244679821
|1143> *
|1144>
|1145>
|1146> $new_job
|1147>
|1148> # 48mecn.sphere.gfn2.md.500k.prod1.3mecn.cm.17.dset.2mecn-orca.engrad-mp2.def2tzvp-14800.to.14847
|1149> ! MP2 def2-TZVP EnGrad TightSCF FrozenCore
|1150>
|1151> %pal
|1152>     nprocs 12
|1153> end
|1154>
|1155> %maxcore 8000
|1156>
|1157> %scf
|1158>     ConvForced true
|1159> end
|1160>
|1161> *xyz 0 1
|1162> C  -3.909556549   3.013222674  -0.978881653
|1163> H  -4.913217233   3.253691515  -1.403689734
|1164> H  -3.185774861   3.458115049  -1.788349652
|1165> H  -3.764683738   3.602238226  -0.076685281
|1166> C  -3.704306775   1.646061545  -1.072619610
|1167> N  -3.469431244   0.524748809  -1.201147349
|1168> C   2.967197299  -0.813079139   1.379209170
|1169> H   2.689302204  -0.667467194   2.422648908
|1170> H   2.089483153  -0.983112919   0.611695637
|1171> H   3.430929457   0.125704355   1.124360582
|1172> C   3.819975414  -1.883465900   1.036592694
|1173> N   4.441187190  -2.840098871   0.824744340
|1174> *
|1175>
|1176>
|1177> $new_job
|1178>
|1179> # 48mecn.sphere.gfn2.md.500k.prod1.3mecn.cm.17.dset.2mecn-orca.engrad-mp2.def2tzvp-14800.to.14847
|1180> ! MP2 def2-TZVP EnGrad TightSCF FrozenCore
|1181>
|1182> %pal
|1183>     nprocs 12
|1184> end
|1185>
|1186> %maxcore 8000
|1187>
|1188> %scf
|1189>     ConvForced true
|1190> end
|1191>
|1192> *xyz 0 1
|1193> C  -2.397385785   1.027289946  -4.088946729
|1194> H  -3.226736324   1.744636550  -4.304634665
|1195> H  -1.459521795   1.644305008  -4.204552587
|1196> H  -2.719394178   0.645596894  -3.080037999
|1197> C  -2.427227619  -0.067603924  -4.975709525
|1198> N  -2.593951371  -0.875603803  -5.768621073
|1199> C   2.009208801   1.067568390   5.359480396
|1200> H   2.751883950   1.536562894   6.032674819
|1201> H   1.130371949   0.642175517   5.921413989
|1202> H   1.891183160   1.792035393   4.521245289
|1203> C   2.571708450  -0.198966340   4.787799012
|1204> N   2.920351682  -1.268060381   4.488759826
|1205> *
|1206>
|1207>
|1208> $new_job
|1209>
|1210> # 48mecn.sphere.gfn2.md.500k.prod1.3mecn.cm.17.dset.2mecn-orca.engrad-mp2.def2tzvp-14800.to.14847
|1211> ! MP2 def2-TZVP EnGrad TightSCF FrozenCore
|1212>
|1213> %pal
|1214>     nprocs 12
|1215> end
|1216>
|1217> %maxcore 8000
|1218>
|1219> %scf
|1220>     ConvForced true
|1221> end
|1222>
|1223> *xyz 0 1
|1224> C  -1.973766604   4.101209859  -0.513292474
|1225> H  -2.803117144   4.818556464  -0.728980410
|1226> H  -1.035902615   4.718224921  -0.628898333
|1227> H  -2.295774998   3.719516808   0.495616256
|1228> C  -2.003608439   3.006315989  -1.400055271
|1229> N  -2.170332190   2.198316111  -2.192966819
|1230> C   1.736077701  -3.951373225   0.412241937
|1231> H   2.164324521  -3.901304033  -0.620058495
|1232> H   0.656270353  -3.832675163   0.474836882
|1233> H   1.885266833  -4.936487065   0.666720045
|1234> C   2.162726529  -3.091352850   1.453011596
|1235> N   2.340521162  -2.296031532   2.258724323
|1236> *
|1237>
|1238>
|1239> $new_job
|1240>
|1241> # 48mecn.sphere.gfn2.md.500k.prod1.3mecn.cm.17.dset.2mecn-orca.engrad-mp2.def2tzvp-14800.to.14847
|1242> ! MP2 def2-TZVP EnGrad TightSCF FrozenCore
|1243>
|1244> %pal
|1245>     nprocs 12
|1246> end
|1247>
|1248> %maxcore 8000
|1249>
|1250> %scf
|1251>     ConvForced true
|1252> end
|1253>
|1254> *xyz 0 1
|1255> C  -0.045600636   4.222550423   4.030264080
|1256> H   0.697074513   4.691544928   4.703458503
|1257> H  -0.924437487   3.797157550   4.592197672
|1258> H  -0.163626276   4.947017426   3.192028973
|1259> C   0.516899014   2.956015694   3.458582696
|1260> N   0.865542245   1.886921652   3.159543510
|1261> C  -0.742350915  -3.870311106  -4.492628633
|1262> H  -0.314104095  -3.820241914  -5.524929065
|1263> H  -1.822158263  -3.751613043  -4.430033689
|1264> H  -0.593161783  -4.855424946  -4.238150526
|1265> C  -0.315702087  -3.010290731  -3.451858974
|1266> N  -0.137907454  -2.214969412  -2.646146247
|1267> *
|1268>
|1269>
|1270> $new_job
|1271>
|1272> # 48mecn.sphere.gfn2.md.500k.prod1.3mecn.cm.17.dset.2mecn-orca.engrad-mp2.def2tzvp-14800.to.14847
|1273> ! MP2 def2-TZVP EnGrad TightSCF FrozenCore
|1274>
|1275> %pal
|1276>     nprocs 12
|1277> end
|1278>
|1279> %maxcore 8000
|1280>
|1281> %scf
|1282>     ConvForced true
|1283> end
|1284>
|1285> *xyz 0 1
|1286> C   3.453493193  -1.855353121   1.796852099
|1287> H   2.775822181  -1.100924084   2.067618485
|1288> H   3.874730911  -1.584217031   0.820626934
|1289> H   4.060881181  -1.945295322   2.759731785
|1290> C   2.470539005  -2.889105549   1.433208705
|1291> N   1.772096434  -3.789022271   1.201781090
|1292> C  -1.778927406   3.671521353  -1.813445699
|1293> H  -1.332661668   4.078206883  -0.949308233
|1294> H  -2.401619503   4.655648520  -1.992859539
|1295> H  -0.993876177   3.503800736  -2.532914290
|1296> C  -2.676343372   2.699389330  -1.372527490
|1297> N  -3.461993357   1.847064298  -1.252024105
|1298> *
|1299>
|1300>
|1301> $new_job
|1302>
|1303> # 48mecn.sphere.gfn2.md.500k.prod1.3mecn.cm.17.dset.2mecn-orca.engrad-mp2.def2tzvp-14800.to.14847
|1304> ! MP2 def2-TZVP EnGrad TightSCF FrozenCore
|1305>
|1306> %pal
|1307>     nprocs 12
|1308> end
|1309>
|1310> %maxcore 8000
|1311>
|1312> %scf
|1313>     ConvForced true
|1314> end
|1315>
|1316> *xyz 0 1
|1317> C   3.288106608  -3.936258492  -2.252859383
|1318> H   2.610435596  -3.181829456  -1.982092997
|1319> H   3.709344327  -3.665122403  -3.229084548
|1320> H   3.895494597  -4.026200693  -1.289979697
|1321> C   2.305152421  -4.970010920  -2.616502777
|1322> N   1.606709849  -5.869927643  -2.847930392
|1323> C  -1.871504863   4.044427766   1.742847807
|1324> H  -2.571963549   3.066688518   1.706076187
|1325> H  -1.011779232   3.803197501   2.249321364
|1326> H  -1.688895627   4.448636715   0.737448932
|1327> C  -2.563214938   4.928154542   2.672199696
|1328> N  -2.955731627   5.781021816   3.367593519
|1329> *
|1330>
|1331>
|1332> $new_job
|1333>
|1334> # 48mecn.sphere.gfn2.md.500k.prod1.3mecn.cm.17.dset.2mecn-orca.engrad-mp2.def2tzvp-14800.to.14847
|1335> ! MP2 def2-TZVP EnGrad TightSCF FrozenCore
|1336>
|1337> %pal
|1338>     nprocs 12
|1339> end
|1340>
|1341> %maxcore 8000
|1342>
|1343> %scf
|1344>     ConvForced true
|1345> end
|1346>
|1347> *xyz 0 1
|1348> C   0.656505117  -1.203996456  -4.369419593
|1349> H   1.102770855  -0.797310925  -3.505282127
|1350> H   0.033813020  -0.219869288  -4.548833434
|1351> H   1.441556346  -1.371717073  -5.088888184
|1352> C  -0.240910849  -2.176128478  -3.928501384
|1353> N  -1.026560834  -3.028453510  -3.807997999
|1354> C   0.729314245   1.249815330   3.236585395
|1355> H   0.028855558   0.272076082   3.199813775
|1356> H   1.589039875   1.008585064   3.743058952
|1357> H   0.911923480   1.654024278   2.231186519
|1358> C   0.037604170   2.133542105   4.165937284
|1359> N  -0.354912520   2.986409380   4.861331106
|1360> *
|1361>
|1362>
|1363> $new_job
|1364>
|1365> # 48mecn.sphere.gfn2.md.500k.prod1.3mecn.cm.17.dset.2mecn-orca.engrad-mp2.def2tzvp-14800.to.14847
|1366> ! MP2 def2-TZVP EnGrad TightSCF FrozenCore
|1367>
|1368> %pal
|1369>     nprocs 12
|1370> end
|1371>
|1372> %maxcore 8000
|1373>
|1374> %scf
|1375>     ConvForced true
|1376> end
|1377>
|1378> *xyz 0 1
|1379> C   1.179563160   1.168221959  -1.062805342
|1380> H   0.863135002   1.469220068  -0.112178980
|1381> H   0.176006589   0.746905310  -1.366768775
|1382> H   1.485367164   2.008889041  -1.747835598
|1383> C   2.194532505   0.118381586  -1.018317775
|1384> N   2.973309393  -0.597297112  -0.633626250
|1385> C  -2.292331634  -1.269211417   1.635451008
|1386> H  -3.395999721  -1.312078749   1.700618309
|1387> H  -1.762161574  -1.255550373   2.575162346
|1388> H  -1.897732571  -2.032786247   0.994504243
|1389> C  -2.018317977  -0.123623929   0.863265080
|1390> N  -1.844217295   0.715396124   0.128526297
|1391> *
|1392>
|1393>
|1394> $new_job
|1395>
|1396> # 48mecn.sphere.gfn2.md.500k.prod1.3mecn.cm.17.dset.2mecn-orca.engrad-mp2.def2tzvp-14800.to.14847
|1397> ! MP2 def2-TZVP EnGrad TightSCF FrozenCore
|1398>
|1399> %pal
|1400>     nprocs 12
|1401> end
|1402>
|1403> %maxcore 8000
|1404>
|1405> %scf
|1406>     ConvForced true
|1407> end
|1408>
|1409> *xyz 0 1
|1410> C   0.174431074   2.607609168   0.087987743
|1411> H  -0.141997084   2.908607277   1.038614104
|1412> H  -0.829125497   2.186292519  -0.215975690
|1413> H   0.480235078   3.448276250  -0.597042514
|1414> C   1.189400419   1.557768794   0.132475309
|1415> N   1.968177307   0.842090097   0.517166835
|1416> C  -0.601124780  -2.172004247  -1.277380041
|1417> H  -0.985306733  -1.651926399  -2.175261038
|1418> H  -0.694252329  -3.216131001  -1.304983227
|1419> H   0.404083574  -1.920617253  -1.138905939
|1420> C  -1.126457892  -1.614427927  -0.155280568
|1421> N  -1.529184828  -1.293257455   0.838353991
|1422> *
|1423>
|1424>
|1425> $new_job
|1426>
|1427> # 48mecn.sphere.gfn2.md.500k.prod1.3mecn.cm.17.dset.2mecn-orca.engrad-mp2.def2tzvp-14800.to.14847
|1428> ! MP2 def2-TZVP EnGrad TightSCF FrozenCore
|1429>
|1430> %pal
|1431>     nprocs 12
|1432> end
|1433>
|1434> %maxcore 8000
|1435>
|1436> %scf
|1437>     ConvForced true
|1438> end
|1439>
|1440> *xyz 0 1
|1441> C   2.138544064  -2.101247974  -2.002466530
|1442> H   1.576359118  -1.399228980  -2.801924419
|1443> H   1.556495913  -2.685090284  -1.275016733
|1444> H   2.939826659  -2.830460484  -2.362890713
|1445> C   2.713473254  -0.980657193  -1.242542634
|1446> N   3.157964255  -0.160535208  -0.578028931
|1447> C  -3.389461155   1.815677315   0.581944696
|1448> H  -4.307555446   1.694420576   1.174784738
|1449> H  -3.473816961   1.408651236  -0.425872393
|1450> H  -3.351783488   2.875673378   0.486915188
|1451> C  -2.521834707   1.024492610   1.339898790
|1452> N  -1.885572937   0.435160264   2.087014036
|1453> *
|1454>
|1455>
|1456> $new_job
|1457>
|1458> # 48mecn.sphere.gfn2.md.500k.prod1.3mecn.cm.17.dset.2mecn-orca.engrad-mp2.def2tzvp-14800.to.14847
|1459> ! MP2 def2-TZVP EnGrad TightSCF FrozenCore
|1460>
|1461> %pal
|1462>     nprocs 12
|1463> end
|1464>
|1465> %maxcore 8000
|1466>
|1467> %scf
|1468>     ConvForced true
|1469> end
|1470>
|1471> *xyz 0 1
|1472> C   0.478842205  -2.213509659  -4.489156596
|1473> H  -0.083342741  -1.511490664  -5.288614484
|1474> H  -0.103205946  -2.797351969  -3.761706799
|1475> H   1.280124800  -2.942722169  -4.849580779
|1476> C   1.053771395  -1.092918878  -3.729232699
|1477> N   1.498262395  -0.272796892  -3.064718996
|1478> C  -0.507412774   0.559350199   2.860459395
|1479> H  -0.470733018   0.964760445   1.769555021
|1480> H  -1.117431934  -0.417982279   2.841722025
|1481> H   0.446525877   0.191144690   3.070428509
|1482> C  -1.064450247   1.321977511   3.892778339
|1483> N  -1.461150182   1.963420398   4.768424463
|1484> *
|1485>
|1486>                          ****END OF INPUT****
 Total Charge           Charge          ....    0
 Multiplicity           Mult            ....    1
 Number of Electrons    NEL             ....   44
MP2 TOTAL ENERGY:     -264.939449940 Eh
FINAL SINGLE POINT ENERGY      -264.939449939796
MP2 TOTAL ENERGY:     -264.929533318 Eh
FINAL SINGLE POINT ENERGY      -264.929533318220
MP2 TOTAL ENERGY:     -264.931920212 Eh
FINAL SINGLE POINT ENERGY      -264.931920212280
MP2 TOTAL ENERGY:     -264.940845954 Eh
FINAL SINGLE POINT ENERGY      -264.940845953761
MP2 TOTAL ENERGY:     -264.939311216 Eh
FINAL SINGLE POINT ENERGY      -264.939311215840
MP2 TOTAL ENERGY:     -264.942368318 Eh
FINAL SINGLE POINT ENERGY      -264.942368317581
FINAL SINGLE POINT ENERGY      -264.946531294481
FINAL SINGLE POINT ENERGY      -264.934703295663
FINAL SINGLE POINT ENERGY      -264.942339937334
FINAL SINGLE POINT ENERGY      -264.935412156269
FINAL SINGLE POINT ENERGY      -264.945799199170
FINAL SINGLE POINT ENERGY      -264.942119013280
FINAL SINGLE POINT ENERGY      -264.942413896604
FINAL SINGLE POINT ENERGY      -264.926736936440
MP2 TOTAL ENERGY:     -264.933693031 Eh
FINAL SINGLE POINT ENERGY      -264.933693031327
MP2 TOTAL ENERGY:     -264.930742141 Eh
FINAL SINGLE POINT ENERGY      -264.930742140924
MP2 TOTAL ENERGY:     -264.943887432 Eh
FINAL SINGLE POINT ENERGY      -264.943887432441
MP2 TOTAL ENERGY:     -264.931690410 Eh
FINAL SINGLE POINT ENERGY      -264.931690409805
MP2 TOTAL ENERGY:     -264.929616559 Eh
FINAL SINGLE POINT ENERGY      -264.929616559465

CARTESIAN COORDINATES (ANGSTROEM)
---------------------------------
  C      0.478842   -2.213510   -4.489157
  H     -0.083343   -1.511491   -5.288614
  H     -0.103206   -2.797352   -3.761707
  H      1.280125   -2.942722   -4.849581
  C      1.053771   -1.092919   -3.729233
  N      1.498262   -0.272797   -3.064719
  C     -0.507413    0.559350    2.860459
  H     -0.470733    0.964760    1.769555
  H     -1.117432   -0.417982    2.841722
  H      0.446526    0.191145    3.070429
  C     -1.064450    1.321978    3.892778
  N     -1.461150    1.963420    4.768424

 Multiplicity           Mult            ....    1
 Number of Electrons    NEL             ....   44
 Basis Dimension        Dim             ....  222

ORBITAL ENERGIES
----------------

  NO   OCC          E(Eh)            E(eV)
   0   2.0000     -15.569834      -423.6767
   1   2.0000     -15.567160      -423.6040
   2   2.0000     -11.311507      -307.8017
   3   2.0000     -11.281565      -306.9870
   4   2.0000     -11.278628      -306.9071
   5   2.0000     -11.273289      -306.7618
   6   2.0000      -1.229118       -33.4460
   7   2.0000      -1.218592       -33.1596
   8   2.0000      -1.043027       -28.3822
   9   2.0000      -1.035971       -28.1902
  10   2.0000      -0.715741       -19.4763
  11   2.0000      -0.691873       -18.8268
  12   2.0000      -0.628662       -17.1068
  13   2.0000      -0.619869       -16.8675
  14   2.0000      -0.617235       -16.7958
  15   2.0000      -0.607252       -16.5242
  16   2.0000      -0.556735       -15.1495
  17   2.0000      -0.555232       -15.1086
  18   2.0000      -0.467675       -12.7261
  19   2.0000      -0.465632       -12.6705
  20   2.0000      -0.455831       -12.4038
  21   2.0000      -0.450685       -12.2638
  22   0.0000       0.107978         2.9382
  23   0.0000       0.122615         3.3365
  24   0.0000       0.159440         4.3386
  25   0.0000       0.162539         4.4229
  26   0.0000       0.167166         4.5488

MULLIKEN ATOMIC CHARGES
-----------------------
   0 C :   -0.297544
   1 H :    0.182169
   2 H :    0.172518
   3 H :    0.178358
   4 C :   -0.167113
   5 N :   -0.068345
   6 C :   -0.315296
   7 H :    0.192193
   8 H :    0.171422
   9 H :    0.180482
  10 C :   -0.152543
  11 N :   -0.076301
Sum of atomic charges:   -0.0000000

LOEWDIN ATOMIC CHARGES
----------------------
   0 C :   -0.297899
   1 H :    0.192076
   2 H :    0.152895
   3 H :    0.159895
   4 C :   -0.250646
   5 N :    0.043695
   6 C :   -0.298985
   7 H :    0.169722
   8 H :    0.173229
   9 H :    0.139073
  10 C :   -0.239798
  11 N :    0.056741

  Mayer bond orders larger than 0.100000
B(  0-C ,  1-H ) :   0.8964 B(  0-C ,  2-H ) :   0.9180 B(  0-C ,  3-H ) :   0.9131
B(  0-C ,  4-C ) :   0.8953 B(  4-C ,  5-N ) :   2.8593 B(  6-C ,  7-H ) :   0.8967
B(  6-C ,  8-H ) :   0.9039 B(  6-C ,  9-H ) :   0.9202 B(  6-C , 10-C ) :   0.9304
B( 10-C , 11-N ) :   2.8413

MP2 TOTAL ENERGY:     -264.932231904 Eh
FINAL SINGLE POINT ENERGY      -264.932231903914

DIPOLE MOMENT
-------------
                                X             Y             Z
Electronic contribution:      0.05545       4.09356       3.85084
Nuclear contribution   :     -0.04488      -6.10149      -5.82424
                        -----------------------------------------
Total Dipole Moment    :      0.01057      -2.00793      -1.97341
                        -----------------------------------------
Magnitude (a.u.)       :      2.81536
Magnitude (Debye)      :      7.15607

Rotational constants in cm-1:     0.401042     0.011521     0.011325
Rotational constants in MHz : 12022.931830   345.379236   339.503116

                             ****ORCA TERMINATED NORMALLY****
TOTAL RUN TIME: 0 days 0 hours 21 minutes 40 seconds 734 msec
